# vtk DataFile Version 3.0
#This file was generated by the deal.II library on 2024/7/23 at 17:39:46
ASCII
DATASET UNSTRUCTURED_GRID

POINTS 36 double
0.707107 -0.707107 0
0.634393 -0.77301 0
0.55557 -0.83147 0
0.55557 -0.83147 0
0.471397 -0.881921 0
0.382683 -0.92388 0
0.382683 -0.92388 0
0.290285 -0.95694 0
0.19509 -0.980785 0
0.19509 -0.980785 0
0.0980171 -0.995185 0
0 -1 0
0.707107 0.707107 0
0.83147 0.55557 0
0.92388 0.382683 0
0.92388 0.382683 0
0.980785 0.19509 0
1 1.11022e-16 0
1 1.11022e-16 0
0.980785 -0.19509 0
0.92388 -0.382683 0
0.92388 -0.382683 0
0.83147 -0.55557 0
0.707107 -0.707107 0
0 1 0
0.0980171 0.995185 0
0.19509 0.980785 0
0.19509 0.980785 0
0.290285 0.95694 0
0.382683 0.92388 0
0.382683 0.92388 0
0.471397 0.881921 0
0.55557 0.83147 0
0.55557 0.83147 0
0.634393 0.77301 0
0.707107 0.707107 0

CELLS 24 72
2	0	1
2	1	2
2	3	4
2	4	5
2	6	7
2	7	8
2	9	10
2	10	11
2	12	13
2	13	14
2	15	16
2	16	17
2	18	19
2	19	20
2	21	22
2	22	23
2	24	25
2	25	26
2	27	28
2	28	29
2	30	31
2	31	32
2	33	34
2	34	35

CELL_TYPES 24
 3 3 3 3 3 3 3 3 3 3 3 3 3 3 3 3 3 3 3 3 3 3 3 3
POINT_DATA 36
SCALARS solution double 1
LOOKUP_TABLE default
1 0.980786 0.92388 0.92388 0.83147 0.707107 0.707107 0.55557 0.382684 0.382684 0.19509 0 -1 -0.923872 -0.707108 -0.707108 -0.38268 -1.59987e-09 -1.59987e-09 0.38268 0.707108 0.707108 0.923872 1 0 -0.19509 -0.382684 -0.382684 -0.55557 -0.707107 -0.707107 -0.83147 -0.92388 -0.92388 -0.980786 -1 
