# vtk DataFile Version 3.0
#This file was generated by the deal.II library on 2024/7/22 at 15:22:07
ASCII
DATASET UNSTRUCTURED_GRID

POINTS 72 double
0.707107 -0.707107 0
0.663056 -0.726675 0
0.618718 -0.743718 0
0.618718 -0.743718 0
0.574736 -0.763271 0
0.53033 -0.78033 0
0.53033 -0.78033 0
0.48644 -0.799849 0
0.441942 -0.816942 0
0.441942 -0.816942 0
0.398162 -0.836415 0
0.353553 -0.853553 0
0.353553 -0.853553 0
0.309892 -0.872978 0
0.265165 -0.890165 0
0.265165 -0.890165 0
0.221613 -0.909544 0
0.176777 -0.926777 0
0.176777 -0.926777 0
0.133314 -0.946114 0
0.0883883 -0.963388 0
0.0883883 -0.963388 0
0.0449851 -0.982688 0
0 -1 0
0.707107 0.707107 0
0.711594 0.617162 0
0.707107 0.53033 0
0.707107 0.53033 0
0.712187 0.440156 0
0.707107 0.353553 0
0.707107 0.353553 0
0.712529 0.263582 0
0.707107 0.176777 0
0.707107 0.176777 0
0.712608 0.0877261 0
0.707107 0 0
0.707107 0 0
0.712608 -0.0877261 0
0.707107 -0.176777 0
0.707107 -0.176777 0
0.712529 -0.263582 0
0.707107 -0.353553 0
0.707107 -0.353553 0
0.712187 -0.440156 0
0.707107 -0.53033 0
0.707107 -0.53033 0
0.711594 -0.617162 0
0.707107 -0.707107 0
0 1 0
0.0449851 0.982688 0
0.0883883 0.963388 0
0.0883883 0.963388 0
0.133314 0.946114 0
0.176777 0.926777 0
0.176777 0.926777 0
0.221613 0.909544 0
0.265165 0.890165 0
0.265165 0.890165 0
0.309892 0.872978 0
0.353553 0.853553 0
0.353553 0.853553 0
0.398162 0.836415 0
0.441942 0.816942 0
0.441942 0.816942 0
0.48644 0.799849 0
0.53033 0.78033 0
0.53033 0.78033 0
0.574736 0.763271 0
0.618718 0.743718 0
0.618718 0.743718 0
0.663056 0.726675 0
0.707107 0.707107 0

CELLS 48 144
2	0	1
2	1	2
2	3	4
2	4	5
2	6	7
2	7	8
2	9	10
2	10	11
2	12	13
2	13	14
2	15	16
2	16	17
2	18	19
2	19	20
2	21	22
2	22	23
2	24	25
2	25	26
2	27	28
2	28	29
2	30	31
2	31	32
2	33	34
2	34	35
2	36	37
2	37	38
2	39	40
2	40	41
2	42	43
2	43	44
2	45	46
2	46	47
2	48	49
2	49	50
2	51	52
2	52	53
2	54	55
2	55	56
2	57	58
2	58	59
2	60	61
2	61	62
2	63	64
2	64	65
2	66	67
2	67	68
2	69	70
2	70	71

CELL_TYPES 48
 3 3 3 3 3 3 3 3 3 3 3 3 3 3 3 3 3 3 3 3 3 3 3 3 3 3 3 3 3 3 3 3 3 3 3 3 3 3 3 3 3 3 3 3 3 3 3 3
POINT_DATA 72
SCALARS solution double 1
LOOKUP_TABLE default
0.764644 0.766312 0.759197 0.759197 0.743508 0.720015 0.720015 0.688684 0.650495 0.650495 0.605488 0.554511 0.554511 0.498015 0.436411 0.436411 0.370815 0.301015 0.301015 0.228902 0.153621 0.153621 0.0777729 0 -0.764644 -0.737344 -0.683909 -0.683909 -0.604334 -0.508577 -0.508577 -0.393124 -0.270082 -0.270082 -0.13601 -4.46041e-12 -4.46041e-12 0.13601 0.270082 0.270082 0.393124 0.508577 0.508577 0.604334 0.683909 0.683909 0.737344 0.764644 0 -0.0777729 -0.153621 -0.153621 -0.228902 -0.301015 -0.301015 -0.370815 -0.436411 -0.436411 -0.498015 -0.554511 -0.554511 -0.605488 -0.650495 -0.650495 -0.688684 -0.720015 -0.720015 -0.743508 -0.759197 -0.759197 -0.766312 -0.764644 
