# vtk DataFile Version 3.0
#This file was generated by the deal.II library on 2024/7/23 at 19:18:21
ASCII
DATASET UNSTRUCTURED_GRID

POINTS 720 double
0 0.707107 -0.707107
0.130526 0.701057 -0.701057
0.258819 0.683013 -0.683013
0 0.55557 -0.83147
0.143873 0.550959 -0.822037
0.284578 0.535073 -0.795432
0 0.382683 -0.92388
0.151926 0.379905 -0.912464
0.300323 0.368305 -0.879862
0.258819 0.683013 -0.683013
0.382683 0.653282 -0.653282
0.5 0.612372 -0.612372
0.284578 0.535073 -0.795432
0.418164 0.509887 -0.751767
0.542855 0.474545 -0.692904
0.300323 0.368305 -0.879862
0.440637 0.35003 -0.826631
0.57088 0.323754 -0.754506
0 0.382683 -0.92388
0.151926 0.379905 -0.912464
0.300323 0.368305 -0.879862
0 0.19509 -0.980785
0.15588 0.19364 -0.96861
0.307803 0.187485 -0.932795
0 1.11022e-16 -1
0.154007 1.15349e-16 -0.98807
0.304339 1.16923e-16 -0.952564
0.300323 0.368305 -0.879862
0.440637 0.35003 -0.826631
0.57088 0.323754 -0.754506
0.307803 0.187485 -0.932795
0.451156 0.177904 -0.874533
0.58331 0.164119 -0.795496
0.304339 1.16923e-16 -0.952564
0.44741 1.15708e-16 -0.894329
0.579805 1.11731e-16 -0.814755
0.5 0.612372 -0.612372
0.608761 0.560986 -0.560986
0.707107 0.5 -0.5
0.542855 0.474545 -0.692904
0.649763 0.432645 -0.625001
0.744793 0.383204 -0.546295
0.57088 0.323754 -0.754506
0.67647 0.294482 -0.675032
0.769666 0.259814 -0.58319
0.707107 0.5 -0.5
0.793353 0.430459 -0.430459
0.866025 0.353553 -0.353553
0.744793 0.383204 -0.546295
0.825589 0.328213 -0.458997
0.892025 0.267719 -0.364168
0.769666 0.259814 -0.58319
0.847765 0.221735 -0.481796
0.910749 0.179702 -0.371812
0.57088 0.323754 -0.754506
0.67647 0.294482 -0.675032
0.769666 0.259814 -0.58319
0.58331 0.164119 -0.795496
0.690245 0.148971 -0.708075
0.783559 0.131045 -0.60734
0.579805 1.11731e-16 -0.814755
0.68868 1.5878e-16 -0.725065
0.783852 2.02669e-16 -0.620948
0.769666 0.259814 -0.58319
0.847765 0.221735 -0.481796
0.910749 0.179702 -0.371812
0.783559 0.131045 -0.60734
0.86093 0.111631 -0.496325
0.922045 0.0902189 -0.376423
0.783852 2.02669e-16 -0.620948
0.863426 2.42525e-16 -0.504475
0.92582 2.77556e-16 -0.377964
0 1.11022e-16 -1
0.154007 1.15349e-16 -0.98807
0.304339 1.16923e-16 -0.952564
0 -0.19509 -0.980785
0.15588 -0.19364 -0.96861
0.307803 -0.187485 -0.932795
0 -0.382683 -0.92388
0.151926 -0.379905 -0.912464
0.300323 -0.368305 -0.879862
0.304339 1.16923e-16 -0.952564
0.44741 1.15708e-16 -0.894329
0.579805 1.11731e-16 -0.814755
0.307803 -0.187485 -0.932795
0.451156 -0.177904 -0.874533
0.58331 -0.164119 -0.795496
0.300323 -0.368305 -0.879862
0.440637 -0.35003 -0.826631
0.57088 -0.323754 -0.754506
0 -0.382683 -0.92388
0.151926 -0.379905 -0.912464
0.300323 -0.368305 -0.879862
0 -0.55557 -0.83147
0.143873 -0.550959 -0.822037
0.284578 -0.535073 -0.795432
0 -0.707107 -0.707107
0.130526 -0.701057 -0.701057
0.258819 -0.683013 -0.683013
0.300323 -0.368305 -0.879862
0.440637 -0.35003 -0.826631
0.57088 -0.323754 -0.754506
0.284578 -0.535073 -0.795432
0.418164 -0.509887 -0.751767
0.542855 -0.474545 -0.692904
0.258819 -0.683013 -0.683013
0.382683 -0.653282 -0.653282
0.5 -0.612372 -0.612372
0.579805 1.11731e-16 -0.814755
0.68868 1.5878e-16 -0.725065
0.783852 2.02669e-16 -0.620948
0.58331 -0.164119 -0.795496
0.690245 -0.148971 -0.708075
0.783559 -0.131045 -0.60734
0.57088 -0.323754 -0.754506
0.67647 -0.294482 -0.675032
0.769666 -0.259814 -0.58319
0.783852 2.02669e-16 -0.620948
0.863426 2.42525e-16 -0.504475
0.92582 2.77556e-16 -0.377964
0.783559 -0.131045 -0.60734
0.86093 -0.111631 -0.496325
0.922045 -0.0902189 -0.376423
0.769666 -0.259814 -0.58319
0.847765 -0.221735 -0.481796
0.910749 -0.179702 -0.371812
0.57088 -0.323754 -0.754506
0.67647 -0.294482 -0.675032
0.769666 -0.259814 -0.58319
0.542855 -0.474545 -0.692904
0.649763 -0.432645 -0.625001
0.744793 -0.383204 -0.546295
0.5 -0.612372 -0.612372
0.608761 -0.560986 -0.560986
0.707107 -0.5 -0.5
0.769666 -0.259814 -0.58319
0.847765 -0.221735 -0.481796
0.910749 -0.179702 -0.371812
0.744793 -0.383204 -0.546295
0.825589 -0.328213 -0.458997
0.892025 -0.267719 -0.364168
0.707107 -0.5 -0.5
0.793353 -0.430459 -0.430459
0.866025 -0.353553 -0.353553
0 0.707107 -0.707107
0 0.83147 -0.55557
0 0.92388 -0.382683
0.130526 0.701057 -0.701057
0.143873 0.822037 -0.550959
0.151926 0.912464 -0.379905
0.258819 0.683013 -0.683013
0.284578 0.795432 -0.535073
0.300323 0.879862 -0.368305
0 0.92388 -0.382683
0 0.980785 -0.19509
0 1 -1.11022e-16
0.151926 0.912464 -0.379905
0.15588 0.96861 -0.19364
0.154007 0.98807 -1.75927e-16
0.300323 0.879862 -0.368305
0.307803 0.932795 -0.187485
0.304339 0.952564 -2.36635e-16
0.258819 0.683013 -0.683013
0.284578 0.795432 -0.535073
0.300323 0.879862 -0.368305
0.382683 0.653282 -0.653282
0.418164 0.751767 -0.509887
0.440637 0.826631 -0.35003
0.5 0.612372 -0.612372
0.542855 0.692904 -0.474545
0.57088 0.754506 -0.323754
0.300323 0.879862 -0.368305
0.307803 0.932795 -0.187485
0.304339 0.952564 -2.36635e-16
0.440637 0.826631 -0.35003
0.451156 0.874533 -0.177904
0.44741 0.894329 -2.91696e-16
0.57088 0.754506 -0.323754
0.58331 0.795496 -0.164119
0.579805 0.814755 -3.39797e-16
0 1 -1.11022e-16
0 0.980785 0.19509
0 0.92388 0.382683
0.154007 0.98807 -1.75927e-16
0.15588 0.96861 0.19364
0.151926 0.912464 0.379905
0.304339 0.952564 -2.36635e-16
0.307803 0.932795 0.187485
0.300323 0.879862 0.368305
0 0.92388 0.382683
0 0.83147 0.55557
0 0.707107 0.707107
0.151926 0.912464 0.379905
0.143873 0.822037 0.550959
0.130526 0.701057 0.701057
0.300323 0.879862 0.368305
0.284578 0.795432 0.535073
0.258819 0.683013 0.683013
0.304339 0.952564 -2.36635e-16
0.307803 0.932795 0.187485
0.300323 0.879862 0.368305
0.44741 0.894329 -2.91696e-16
0.451156 0.874533 0.177904
0.440637 0.826631 0.35003
0.579805 0.814755 -3.39797e-16
0.58331 0.795496 0.164119
0.57088 0.754506 0.323754
0.300323 0.879862 0.368305
0.284578 0.795432 0.535073
0.258819 0.683013 0.683013
0.440637 0.826631 0.35003
0.418164 0.751767 0.509887
0.382683 0.653282 0.653282
0.57088 0.754506 0.323754
0.542855 0.692904 0.474545
0.5 0.612372 0.612372
0.5 0.612372 -0.612372
0.542855 0.692904 -0.474545
0.57088 0.754506 -0.323754
0.608761 0.560986 -0.560986
0.649763 0.625001 -0.432645
0.67647 0.675032 -0.294482
0.707107 0.5 -0.5
0.744793 0.546295 -0.383204
0.769666 0.58319 -0.259814
0.57088 0.754506 -0.323754
0.58331 0.795496 -0.164119
0.579805 0.814755 -3.39797e-16
0.67647 0.675032 -0.294482
0.690245 0.708075 -0.148971
0.68868 0.725065 -3.33922e-16
0.769666 0.58319 -0.259814
0.783559 0.60734 -0.131045
0.783852 0.620948 -3.21403e-16
0.707107 0.5 -0.5
0.744793 0.546295 -0.383204
0.769666 0.58319 -0.259814
0.793353 0.430459 -0.430459
0.825589 0.458997 -0.328213
0.847765 0.481796 -0.221735
0.866025 0.353553 -0.353553
0.892025 0.364168 -0.267719
0.910749 0.371812 -0.179702
0.769666 0.58319 -0.259814
0.783559 0.60734 -0.131045
0.783852 0.620948 -3.21403e-16
0.847765 0.481796 -0.221735
0.86093 0.496325 -0.111631
0.863426 0.504475 -3.02489e-16
0.910749 0.371812 -0.179702
0.922045 0.376423 -0.0902189
0.92582 0.377964 -2.77556e-16
0.579805 0.814755 -3.39797e-16
0.58331 0.795496 0.164119
0.57088 0.754506 0.323754
0.68868 0.725065 -3.33922e-16
0.690245 0.708075 0.148971
0.67647 0.675032 0.294482
0.783852 0.620948 -3.21403e-16
0.783559 0.60734 0.131045
0.769666 0.58319 0.259814
0.57088 0.754506 0.323754
0.542855 0.692904 0.474545
0.5 0.612372 0.612372
0.67647 0.675032 0.294482
0.649763 0.625001 0.432645
0.608761 0.560986 0.560986
0.769666 0.58319 0.259814
0.744793 0.546295 0.383204
0.707107 0.5 0.5
0.783852 0.620948 -3.21403e-16
0.783559 0.60734 0.131045
0.769666 0.58319 0.259814
0.863426 0.504475 -3.02489e-16
0.86093 0.496325 0.111631
0.847765 0.481796 0.221735
0.92582 0.377964 -2.77556e-16
0.922045 0.376423 0.0902189
0.910749 0.371812 0.179702
0.769666 0.58319 0.259814
0.744793 0.546295 0.383204
0.707107 0.5 0.5
0.847765 0.481796 0.221735
0.825589 0.458997 0.328213
0.793353 0.430459 0.430459
0.910749 0.371812 0.179702
0.892025 0.364168 0.267719
0.866025 0.353553 0.353553
0 -0.707107 -0.707107
0.130526 -0.701057 -0.701057
0.258819 -0.683013 -0.683013
0 -0.83147 -0.55557
0.143873 -0.822037 -0.550959
0.284578 -0.795432 -0.535073
0 -0.92388 -0.382683
0.151926 -0.912464 -0.379905
0.300323 -0.879862 -0.368305
0.258819 -0.683013 -0.683013
0.382683 -0.653282 -0.653282
0.5 -0.612372 -0.612372
0.284578 -0.795432 -0.535073
0.418164 -0.751767 -0.509887
0.542855 -0.692904 -0.474545
0.300323 -0.879862 -0.368305
0.440637 -0.826631 -0.35003
0.57088 -0.754506 -0.323754
0 -0.92388 -0.382683
0.151926 -0.912464 -0.379905
0.300323 -0.879862 -0.368305
0 -0.980785 -0.19509
0.15588 -0.96861 -0.19364
0.307803 -0.932795 -0.187485
0 -1 -1.11022e-16
0.154007 -0.98807 -1.47481e-16
0.304339 -0.952564 -1.80421e-16
0.300323 -0.879862 -0.368305
0.440637 -0.826631 -0.35003
0.57088 -0.754506 -0.323754
0.307803 -0.932795 -0.187485
0.451156 -0.874533 -0.177904
0.58331 -0.795496 -0.164119
0.304339 -0.952564 -1.80421e-16
0.44741 -0.894329 -2.09056e-16
0.579805 -0.814755 -2.32703e-16
0.5 -0.612372 -0.612372
0.608761 -0.560986 -0.560986
0.707107 -0.5 -0.5
0.542855 -0.692904 -0.474545
0.649763 -0.625001 -0.432645
0.744793 -0.546295 -0.383204
0.57088 -0.754506 -0.323754
0.67647 -0.675032 -0.294482
0.769666 -0.58319 -0.259814
0.707107 -0.5 -0.5
0.793353 -0.430459 -0.430459
0.866025 -0.353553 -0.353553
0.744793 -0.546295 -0.383204
0.825589 -0.458997 -0.328213
0.892025 -0.364168 -0.267719
0.769666 -0.58319 -0.259814
0.847765 -0.481796 -0.221735
0.910749 -0.371812 -0.179702
0.57088 -0.754506 -0.323754
0.67647 -0.675032 -0.294482
0.769666 -0.58319 -0.259814
0.58331 -0.795496 -0.164119
0.690245 -0.708075 -0.148971
0.783559 -0.60734 -0.131045
0.579805 -0.814755 -2.32703e-16
0.68868 -0.725065 -2.5168e-16
0.783852 -0.620948 -2.65649e-16
0.769666 -0.58319 -0.259814
0.847765 -0.481796 -0.221735
0.910749 -0.371812 -0.179702
0.783559 -0.60734 -0.131045
0.86093 -0.496325 -0.111631
0.922045 -0.376423 -0.0902189
0.783852 -0.620948 -2.65649e-16
0.863426 -0.504475 -2.74332e-16
0.92582 -0.377964 -2.77556e-16
0 -1 -1.11022e-16
0.154007 -0.98807 -1.47481e-16
[...]
POINT_DATA 720
SCALARS solution double 1
LOOKUP_TABLE default
0 -0.116984 -0.199687 0 -0.0302899 -0.0385707 0 0.0679888 0.135061 -0.199687 -0.22499 -0.187964 -0.0385707 -0.0139378 0.0397076 0.135061 0.195315 0.24147 0 0.0679888 0.135061 0 0.146607 0.269599 0 0.17369 0.315976 0.135061 0.195315 0.24147 0.269599 0.349605 0.379471 0.315976 0.40382 0.429074 -0.187964 -0.10189 -0.00048696 0.0397076 0.099693 0.149401 0.24147 0.260557 0.253115 -0.00048696 0.0852852 0.127156 0.149401 0.16883 0.154406 0.253115 0.218004 0.161069 0.24147 0.260557 0.253115 0.379471 0.363483 0.313836 0.429074 0.401601 0.337274 0.253115 0.218004 0.161069 0.313836 0.241976 0.159734 0.337274 0.251176 0.158158 0 0.17369 0.315976 0 0.146607 0.269599 0 0.0679887 0.135061 0.315976 0.40382 0.429074 0.269599 0.349605 0.379471 0.135061 0.195315 0.24147 0 0.0679887 0.135061 0 -0.0302899 -0.0385707 0 -0.116984 -0.199687 0.135061 0.195315 0.24147 -0.0385707 -0.0139379 0.0397075 -0.199687 -0.22499 -0.187964 0.429074 0.401601 0.337274 0.379471 0.363483 0.313836 0.24147 0.260557 0.253115 0.337274 0.251176 0.158158 0.313836 0.241976 0.159734 0.253115 0.218004 0.161069 0.24147 0.260557 0.253115 0.0397075 0.099693 0.149401 -0.187964 -0.10189 -0.000487012 0.253115 0.218004 0.161069 0.149401 0.16883 0.154405 -0.000487012 0.0852852 0.127156 0 0 0 -0.116984 -0.213285 -0.302315 -0.199687 -0.365522 -0.520893 0 0 0 -0.302315 -0.385446 -0.464315 -0.520893 -0.667399 -0.807185 -0.199687 -0.365522 -0.520893 -0.22499 -0.412712 -0.591947 -0.187964 -0.35096 -0.505902 -0.520893 -0.667399 -0.807185 -0.591947 -0.763351 -0.931714 -0.505902 -0.656252 -0.809807 0 0 0 -0.464315 -0.568096 -0.646327 -0.807185 -0.971738 -1.08886 0 0 0 -0.646327 -0.64198 -0.476801 -1.08886 -1.0669 -0.785725 -0.807185 -0.971738 -1.08886 -0.931714 -1.09016 -1.19275 -0.809807 -0.911496 -0.966478 -1.08886 -1.0669 -0.785725 -1.19275 -1.1454 -0.833074 -0.966478 -0.906921 -0.641809 -0.187964 -0.35096 -0.505902 -0.10189 -0.221395 -0.331296 -0.00048696 -0.0708459 -0.13184 -0.505902 -0.656252 -0.809807 -0.331296 -0.43388 -0.539384 -0.13184 -0.182051 -0.232677 -0.00048696 -0.0708459 -0.13184 0.0852852 0.0478782 0.0208148 0.127156 0.105596 0.090983 -0.13184 -0.182051 -0.232677 0.0208148 0.00403001 -0.00611208 0.090983 0.084261 0.0868125 -0.809807 -0.911496 -0.966478 -0.539384 -0.584662 -0.597137 -0.232677 -0.236258 -0.220686 -0.966478 -0.906921 -0.641809 -0.597137 -0.526698 -0.312453 -0.220686 -0.151752 0.00117989 -0.232677 -0.236258 -0.220686 -0.00611208 0.00540552 0.0331562 0.0868125 0.100745 0.130242 -0.220686 -0.151752 0.00117989 0.0331562 0.0932091 0.202479 0.130242 0.180274 0.259845 0 -0.116984 -0.199687 0 -0.213285 -0.365522 0 -0.302315 -0.520893 -0.199687 -0.22499 -0.187964 -0.365522 -0.412712 -0.35096 -0.520893 -0.591947 -0.505902 0 -0.302315 -0.520893 0 -0.385446 -0.667399 0 -0.464315 -0.807185 -0.520893 -0.591947 -0.505902 -0.667399 -0.763351 -0.656252 -0.807185 -0.931714 -0.809807 -0.187964 -0.10189 -0.000487012 -0.35096 -0.221395 -0.0708459 -0.505902 -0.331296 -0.13184 -0.000487012 0.0852852 0.127156 -0.0708459 0.0478782 0.105596 -0.13184 0.0208148 0.0909829 -0.505902 -0.331296 -0.13184 -0.656252 -0.43388 -0.182051 -0.809807 -0.539384 -0.232677 -0.13184 0.0208148 0.0909829 -0.182051 0.00402998 0.084261 -0.232677 -0.00611209 0.0868125 0 -0.464315 -0.807185 0 -0.568096 -0.971738 0 -0.646327 -1.08886 -0.807185 -0.931714 -0.809807 -0.971738 -1.09016 -0.911496 -1.08886 -1.19275 -0.966478 0 -0.646327 -1.08886 0 -0.64198 -1.0669 0 -0.476801 -0.785725 -1.08886 -1.19275 -0.966478 -1.0669 -1.1454 -0.906921 -0.785725 -0.833074 -0.641809 -0.809807 -0.539384 -0.232677 -0.911496 -0.584662 -0.236258 -0.966478 -0.597137 -0.220686 -0.232677 -0.00611209 0.0868125 -0.236258 0.00540553 0.100745 -0.220686 0.0331563 0.130242 -0.966478 -0.597137 -0.220686 -0.906921 -0.526698 -0.151752 -0.641809 -0.312453 0.00117996 -0.220686 0.0331563 0.130242 -0.151752 0.0932092 0.180274 0.00117996 0.202479 0.259845 0 0 0 -0.476801 -0.156583 0.419134 -0.785725 -0.189475 0.781716 0 0 0 0.419134 1.0163 1.25525 0.781716 1.74165 2.12788 -0.785725 -0.189475 0.781716 -0.833074 -0.0622769 1.0187 -0.641809 0.16037 1.09333 0.781716 1.74165 2.12788 1.0187 2.00957 2.417 1.09333 1.86152 2.18805 0 0 0 1.25525 1.0163 0.419134 2.12788 1.74165 0.781716 0 0 0 0.419134 -0.156583 -0.476801 0.781716 -0.189474 -0.785725 2.12788 1.74165 0.781716 2.417 2.00957 1.0187 2.18805 1.86152 1.09333 0.781716 -0.189474 -0.785725 1.0187 -0.0622768 -0.833074 1.09333 0.16037 -0.641809 -0.641809 0.16037 1.09333 -0.312453 0.348489 1.00646 0.00117989 0.44609 0.813357 1.09333 1.86152 2.18805 1.00646 1.49829 1.71149 0.813357 1.05623 1.16574 0.00117989 0.44609 0.813357 0.202479 0.423777 0.57216 0.259845 0.319419 0.338033 0.813357 1.05623 1.16574 0.57216 0.652803 0.688259 0.338033 0.338697 0.336595 2.18805 1.86152 1.09333 1.71149 1.49829 1.00646 1.16574 1.05623 0.813357 1.09333 0.16037 -0.641809 1.00646 0.348489 -0.312453 0.813357 0.44609 0.00117996 1.16574 1.05623 0.813357 0.688259 0.652803 0.57216 0.336595 0.338697 0.338033 0.813357 0.44609 0.00117996 0.57216 0.423777 0.202479 0.338033 0.319419 0.259845 0.127156 0.105596 0.090983 0.154406 0.121219 0.0964828 0.161069 0.115474 0.0785972 0.090983 0.084261 0.0868125 0.0964828 0.08231 0.0817928 0.0785972 0.0546505 0.0484354 0.161069 0.115474 0.0785972 0.159734 0.104035 0.0575757 0.158158 0.0986517 0.0485039 0.0785972 0.0546505 0.0484354 0.0575757 0.0255294 0.0141704 0.0485039 0.0133717 -3.13393e-05 0.0868125 0.100745 0.130242 0.0817928 0.0990384 0.139569 0.0484354 0.0659939 0.114579 0.130242 0.180274 0.259845 0.139569 0.210378 0.319419 0.114579 0.202547 0.338033 0.0484354 0.0659939 0.114579 0.0141704 0.0308441 0.0842407 -3.13393e-05 0.0161027 0.0710128 0.114579 0.202547 0.338033 0.0842407 0.183806 0.338697 0.0710128 0.174707 0.336595 0.158158 0.0986517 0.0485039 0.159734 0.104035 0.0575757 0.161069 0.115474 0.0785972 0.0485039 0.0133717 -3.13393e-05 0.0575757 0.0255294 0.0141704 0.0785972 0.0546505 0.0484354 0.161069 0.115474 0.0785972 0.154405 0.121219 0.0964828 0.127156 0.105596 0.0909829 0.0785972 0.0546505 0.0484354 0.0964828 0.0823099 0.0817928 0.0909829 0.084261 0.0868125 -3.13393e-05 0.0161027 0.0710128 0.0141704 0.0308441 0.0842407 0.0484354 0.0659939 0.114579 0.0710128 0.174707 0.336595 0.0842407 0.183806 0.338697 0.114579 0.202547 0.338033 0.0484354 0.0659939 0.114579 0.0817928 0.0990383 0.139569 0.0868125 0.100745 0.130242 0.114579 0.202547 0.338033 0.139569 0.210378 0.319419 0.130242 0.180274 0.259845 
