# vtk DataFile Version 3.0
#This file was generated by the deal.II library on 2024/7/22 at 14:45:45
ASCII
DATASET UNSTRUCTURED_GRID

POINTS 18 double
0.707107 -0.707107 0
0.534425 -0.799824 0
0.353553 -0.853553 0
0.353553 -0.853553 0
0.187665 -0.943456 0
0 -1 0
0.707107 0.707107 0
0.788581 0.326641 0
0.707107 0 0
0.707107 0 0
0.788581 -0.326641 0
0.707107 -0.707107 0
0 1 0
0.187665 0.943456 0
0.353553 0.853553 0
0.353553 0.853553 0
0.534425 0.799824 0
0.707107 0.707107 0

CELLS 12 36
2	0	1
2	1	2
2	3	4
2	4	5
2	6	7
2	7	8
2	9	10
2	10	11
2	12	13
2	13	14
2	15	16
2	16	17

CELL_TYPES 12
 3 3 3 3 3 3 3 3 3 3 3 3
POINT_DATA 18
SCALARS solution double 1
LOOKUP_TABLE default
0.828379 0.771608 0.593426 0.593426 0.327658 0 -0.828379 -0.527701 1.82899e-16 1.82899e-16 0.527701 0.828379 0 -0.327658 -0.593426 -0.593426 -0.771608 -0.828379 
