# vtk DataFile Version 3.0
#This file was generated by the deal.II library on 2024/7/22 at 15:22:08
ASCII
DATASET UNSTRUCTURED_GRID

POINTS 2304 double
0 -1 0
0.0490677 -0.998795 0
0.0980171 -0.995185 0
0 -0.955806 0
0.0470164 -0.953407 0
0.0939737 -0.949804 0
0 -0.911612 0
0.0449651 -0.908018 0
0.0899302 -0.904423 0
0.0980171 -0.995185 0
0.14673 -0.989177 0
0.19509 -0.980785 0
0.0939737 -0.949804 0
0.140695 -0.943805 0
0.187239 -0.936614 0
0.0899302 -0.904423 0
0.134659 -0.898433 0
0.179388 -0.892443 0
0 -0.911612 0
0.0449651 -0.908018 0
0.0899302 -0.904423 0
0 -0.867417 0
0.0429433 -0.86323 0
0.0858867 -0.859043 0
0 -0.823223 0
0.0409216 -0.818443 0
0.0818432 -0.813662 0
0.0899302 -0.904423 0
0.134659 -0.898433 0
0.179388 -0.892443 0
0.0858867 -0.859043 0
0.128712 -0.853657 0
0.171537 -0.848272 0
0.0818432 -0.813662 0
0.122765 -0.808881 0
0.163686 -0.804101 0
0.19509 -0.980785 0
0.24298 -0.970031 0
0.290285 -0.95694 0
0.187239 -0.936614 0
0.23308 -0.925884 0
0.278627 -0.913984 0
0.179388 -0.892443 0
0.223179 -0.881736 0
0.26697 -0.871029 0
0.290285 -0.95694 0
0.33689 -0.941544 0
0.382683 -0.92388 0
0.278627 -0.913984 0
0.323476 -0.899781 0
0.367919 -0.884443 0
0.26697 -0.871029 0
0.310062 -0.858017 0
0.353154 -0.845006 0
0.179388 -0.892443 0
0.223179 -0.881736 0
0.26697 -0.871029 0
0.171537 -0.848272 0
0.213425 -0.838172 0
0.255313 -0.828073 0
0.163686 -0.804101 0
0.203671 -0.794609 0
0.243655 -0.785117 0
0.26697 -0.871029 0
0.310062 -0.858017 0
0.353154 -0.845006 0
0.255313 -0.828073 0
0.296851 -0.816821 0
0.338389 -0.80557 0
0.243655 -0.785117 0
0.28364 -0.775625 0
0.323624 -0.766133 0
0 -0.823223 0
0.0409216 -0.818443 0
0.0818432 -0.813662 0
0 -0.779029 0
0.0389589 -0.774254 0
0.0779177 -0.769479 0
0 -0.734835 0
0.0369961 -0.730066 0
0.0739922 -0.725297 0
0.0818432 -0.813662 0
0.122765 -0.808881 0
0.163686 -0.804101 0
0.0779177 -0.769479 0
0.116877 -0.764705 0
0.155835 -0.75993 0
0.0739922 -0.725297 0
0.110988 -0.720528 0
0.147984 -0.715759 0
0 -0.734835 0
0.0369961 -0.730066 0
0.0739922 -0.725297 0
0 -0.690641 0
0.0350334 -0.685878 0
0.0700667 -0.681114 0
0 -0.646447 0
0.0330706 -0.641689 0
0.0661413 -0.636932 0
0.0739922 -0.725297 0
0.110988 -0.720528 0
0.147984 -0.715759 0
0.0700667 -0.681114 0
0.1051 -0.676351 0
0.140133 -0.671588 0
0.0661413 -0.636932 0
0.0992119 -0.632174 0
0.132283 -0.627416 0
0.163686 -0.804101 0
0.203671 -0.794609 0
0.243655 -0.785117 0
0.155835 -0.75993 0
0.194091 -0.751621 0
0.232347 -0.743313 0
0.147984 -0.715759 0
0.184512 -0.708634 0
0.22104 -0.701509 0
0.243655 -0.785117 0
0.28364 -0.775625 0
0.323624 -0.766133 0
0.232347 -0.743313 0
0.270603 -0.735005 0
0.308859 -0.726696 0
0.22104 -0.701509 0
0.257567 -0.694384 0
0.294095 -0.68726 0
0.147984 -0.715759 0
0.184512 -0.708634 0
0.22104 -0.701509 0
0.140133 -0.671588 0
0.174933 -0.665646 0
0.209732 -0.659705 0
0.132283 -0.627416 0
0.165353 -0.622659 0
0.198424 -0.617901 0
0.22104 -0.701509 0
0.257567 -0.694384 0
0.294095 -0.68726 0
0.209732 -0.659705 0
0.244531 -0.653764 0
0.27933 -0.647823 0
0.198424 -0.617901 0
0.231494 -0.613144 0
0.264565 -0.608386 0
0.382683 -0.92388 0
0.427555 -0.903989 0
0.471397 -0.881921 0
0.367919 -0.884443 0
0.410525 -0.864672 0
0.452616 -0.843812 0
0.353154 -0.845006 0
0.393495 -0.825354 0
0.433836 -0.805702 0
0.471397 -0.881921 0
0.514103 -0.857729 0
0.55557 -0.83147 0
0.452616 -0.843812 0
0.493572 -0.820827 0
0.533909 -0.79681 0
0.433836 -0.805702 0
0.473042 -0.783926 0
0.512248 -0.762151 0
0.353154 -0.845006 0
0.393495 -0.825354 0
0.433836 -0.805702 0
0.338389 -0.80557 0
0.376722 -0.786581 0
0.415056 -0.767592 0
0.323624 -0.766133 0
0.35995 -0.747808 0
0.396275 -0.729482 0
0.433836 -0.805702 0
0.473042 -0.783926 0
0.512248 -0.762151 0
0.415056 -0.767592 0
0.452821 -0.747541 0
0.490587 -0.727491 0
0.396275 -0.729482 0
0.432601 -0.711157 0
0.468926 -0.692831 0
0.55557 -0.83147 0
0.595699 -0.803208 0
0.634393 -0.77301 0
0.533909 -0.79681 0
0.572241 -0.769792 0
0.609855 -0.741806 0
0.512248 -0.762151 0
0.548782 -0.736376 0
0.585317 -0.710601 0
0.634393 -0.77301 0
0.671559 -0.740951 0
0.707107 -0.707107 0
0.609855 -0.741806 0
0.645941 -0.711958 0
0.681218 -0.681218 0
0.585317 -0.710601 0
0.620323 -0.682966 0
0.65533 -0.65533 0
0.512248 -0.762151 0
0.548782 -0.736376 0
0.585317 -0.710601 0
0.490587 -0.727491 0
0.525683 -0.703444 0
0.560778 -0.679397 0
0.468926 -0.692831 0
0.502583 -0.670512 0
0.53624 -0.648192 0
0.585317 -0.710601 0
0.620323 -0.682966 0
0.65533 -0.65533 0
0.560778 -0.679397 0
0.59511 -0.654419 0
0.629442 -0.629442 0
0.53624 -0.648192 0
0.569897 -0.625873 0
0.603553 -0.603553 0
0.323624 -0.766133 0
0.35995 -0.747808 0
0.396275 -0.729482 0
0.308859 -0.726696 0
0.343461 -0.709565 0
0.378062 -0.692434 0
0.294095 -0.68726 0
0.326972 -0.671323 0
0.35985 -0.655386 0
0.396275 -0.729482 0
0.432601 -0.711157 0
0.468926 -0.692831 0
0.378062 -0.692434 0
0.412664 -0.675303 0
0.447265 -0.658172 0
0.35985 -0.655386 0
0.392727 -0.639449 0
0.425604 -0.623512 0
0.294095 -0.68726 0
0.326972 -0.671323 0
0.35985 -0.655386 0
0.27933 -0.647823 0
0.310483 -0.63308 0
0.341637 -0.618338 0
0.264565 -0.608386 0
0.293994 -0.594838 0
0.323424 -0.58129 0
0.35985 -0.655386 0
0.392727 -0.639449 0
0.425604 -0.623512 0
0.341637 -0.618338 0
0.37279 -0.603595 0
0.403943 -0.588853 0
0.323424 -0.58129 0
0.352853 -0.567741 0
0.382283 -0.554193 0
0.468926 -0.692831 0
0.502583 -0.670512 0
0.53624 -0.648192 0
0.447265 -0.658172 0
0.479865 -0.638045 0
0.512465 -0.617918 0
0.425604 -0.623512 0
0.457148 -0.605578 0
0.488691 -0.587644 0
0.53624 -0.648192 0
0.569897 -0.625873 0
0.603553 -0.603553 0
0.512465 -0.617918 0
0.545065 -0.597792 0
0.577665 -0.577665 0
0.488691 -0.587644 0
0.520234 -0.569711 0
0.551777 -0.551777 0
0.425604 -0.623512 0
0.457148 -0.605578 0
0.488691 -0.587644 0
0.403943 -0.588853 0
0.43443 -0.573112 0
0.464916 -0.557371 0
0.382283 -0.554193 0
0.411712 -0.540645 0
0.441141 -0.527097 0
0.488691 -0.587644 0
0.520234 -0.569711 0
0.551777 -0.551777 0
0.464916 -0.557371 0
0.495402 -0.541629 0
0.525888 -0.525888 0
0.441141 -0.527097 0
0.470571 -0.513548 0
0.5 -0.5 0
0 -0.646447 0
0.0330706 -0.641689 0
0.0661413 -0.636932 0
0 -0.602252 0
0.031225 -0.59809 0
0.0624501 -0.593927 0
0 -0.558058 0
0.0293794 -0.55449 0
0.0587589 -0.550922 0
0.0661413 -0.636932 0
0.0992119 -0.632174 0
0.132283 -0.627416 0
0.0624501 -0.593927 0
0.0936751 -0.589764 0
0.1249 -0.585601 0
0.0587589 -0.550922 0
0.0881383 -0.547354 0
0.117518 -0.543786 0
0 -0.558058 0
0.0293794 -0.55449 0
0.0587589 -0.550922 0
0 -0.513864 0
0.0275338 -0.510891 0
0.0550677 -0.507917 0
0 -0.46967 0
0.0256882 -0.467291 0
0.0513765 -0.464912 0
0.0587589 -0.550922 0
0.0881383 -0.547354 0
0.117518 -0.543786 0
0.0550677 -0.507917 0
0.0826015 -0.504944 0
0.110135 -0.50197 0
0.0513765 -0.464912 0
0.0770647 -0.462534 0
0.102753 -0.460155 0
0.132283 -0.627416 0
0.165353 -0.622659 0
0.198424 -0.617901 0
0.1249 -0.585601 0
0.156125 -0.581438 0
0.18735 -0.577275 0
0.117518 -0.543786 0
0.146897 -0.540218 0
0.176277 -0.536649 0
0.198424 -0.617901 0
0.231494 -0.613144 0
0.264565 -0.608386 0
0.18735 -0.577275 0
0.218575 -0.573113 0
0.2498 -0.56895 0
0.176277 -0.536649 0
0.205656 -0.533081 0
0.235035 -0.529513 0
0.117518 -0.543786 0
0.146897 -0.540218 0
0.176277 -0.536649 0
0.110135 -0.50197 0
0.137669 -0.498997 0
0.165203 -0.496023 0
0.102753 -0.460155 0
0.128441 -0.457776 0
0.154129 -0.455397 0
0.176277 -0.536649 0
0.205656 -0.533081 0
0.235035 -0.529513 0
0.165203 -0.496023 0
0.192737 -0.49305 0
0.220271 -0.490076 0
0.154129 -0.455397 0
0.179818 -0.453019 0
0.205506 -0.45064 0
0 -0.46967 0
0.0256882 -0.467291 0
0.0513765 -0.464912 0
0 -0.425476 0
0.0238426 -0.423692 0
0.0476853 -0.421908 0
0 -0.381282 0
0.021997 -0.380092 0
0.0439941 -0.378903 0
0.0513765 -0.464912 0
0.0770647 -0.462534 0
0.102753 -0.460155 0
0.0476853 -0.421908 0
0.0715279 -0.420124 0
0.0953705 -0.418339 0
0.0439941 -0.378903 0
0.0659911 -0.377713 0
0.0879881 -0.376524 0
0 -0.381282 0
0.021997 -0.380092 0
0.0439941 -0.378903 0
0 -0.337087 0
0.0201514 -0.336493 0
0.0403029 -0.335898 0
0 -0.292893 0
0.0183058 -0.292893 0
0.0366117 -0.292893 0
0.0439941 -0.378903 0
0.0659911 -0.377713 0
0.0879881 -0.376524 0
0.0403029 -0.335898 0
0.0604543 -0.335303 0
0.0806057 -0.334709 0
0.0366117 -0.292893 0
0.0549175 -0.292893 0
0.0732233 -0.292893 0
0.102753 -0.460155 0
0.128441 -0.457776 0
0.154129 -0.455397 0
0.0953705 -0.418339 0
0.119213 -0.416555 0
0.143056 -0.414771 0
0.0879881 -0.376524 0
0.109985 -0.375335 0
0.131982 -0.374145 0
0.154129 -0.455397 0
0.179818 -0.453019 0
0.205506 -0.45064 0
0.143056 -0.414771 0
0.166898 -0.412987 0
0.190741 -0.411203 0
0.131982 -0.374145 0
0.153979 -0.372956 0
0.175976 -0.371767 0
0.0879881 -0.376524 0
0.109985 -0.375335 0
0.131982 -0.374145 0
0.0806057 -0.334709 0
0.100757 -0.334114 0
0.120909 -0.333519 0
0.0732233 -0.292893 0
0.0915291 -0.292893 0
0.109835 -0.292893 0
0.131982 -0.374145 0
0.153979 -0.372956 0
0.175976 -0.371767 0
0.120909 -0.333519 0
0.14106 -0.332925 0
0.161211 -0.33233 0
0.109835 -0.292893 0
0.128141 -0.292893 0
0.146447 -0.292893 0
0.264565 -0.608386 0
0.293994 -0.594838 0
0.323424 -0.58129 0
0.2498 -0.56895 0
0.277839 -0.557095 0
0.305878 -0.54524 0
0.235035 -0.529513 0
0.261684 -0.519352 0
0.288332 -0.509191 0
0.323424 -0.58129 0
0.352853 -0.567741 0
0.382283 -0.554193 0
0.305878 -0.54524 0
0.333917 -0.533385 0
0.361956 -0.521531 0
0.288332 -0.509191 0
0.314981 -0.499029 0
0.341629 -0.488868 0
0.235035 -0.529513 0
0.261684 -0.519352 0
0.288332 -0.509191 0
0.220271 -0.490076 0
0.245529 -0.481609 0
0.270787 -0.473141 0
0.205506 -0.45064 0
0.229373 -0.443866 0
0.253241 -0.437092 0
0.288332 -0.509191 0
0.314981 -0.499029 0
0.341629 -0.488868 0
0.270787 -0.473141 0
0.296045 -0.464673 0
0.321303 -0.456206 0
0.253241 -0.437092 0
0.277109 -0.430317 0
0.300976 -0.423543 0
0.382283 -0.554193 0
0.411712 -0.540645 0
0.441141 -0.527097 0
0.361956 -0.521531 0
0.389995 -0.509676 0
0.418034 -0.497821 0
0.341629 -0.488868 0
0.368278 -0.478707 0
0.394926 -0.468546 0
[...]
POINT_DATA 2304
SCALARS solution double 1
LOOKUP_TABLE default
0 0.515042 0.616556 0.489501 0.557758 0.659445 0.605609 0.653658 0.691625 0.616556 0.709476 0.759749 0.659445 0.718636 0.766602 0.691625 0.74194 0.779059 0.605609 0.653658 0.691625 0.700206 0.714787 0.741063 0 0.76566 0.780942 0.691625 0.74194 0.779059 0.741063 0.770378 0.798447 0.780942 0.80038 0.819611 0.759749 0.799322 0.828825 0.766602 0.802832 0.831265 0.779059 0.811566 0.837042 0.828825 0.851933 0.869939 0.831265 0.853686 0 0.837042 0.857736 0.873925 0.779059 0.811566 0.837042 0.798447 0.824368 0.846048 0.819611 0.839806 0.857279 0.837042 0.857736 0.873925 0.846048 0.864005 0.878407 0.857279 0.872125 0.884363 0 0.76566 0.780942 0.798158 0.804566 0.814941 0.831487 0.836234 0.843237 0.780942 0.80038 0.819611 0.814941 0.827597 0.841225 0.843237 0.851982 0.861519 0.831487 0.836234 0.843237 0.858612 0.862097 0.867085 0.880682 0.883359 0.886967 0.843237 0.851982 0.861519 0.867085 0.873165 0.879923 0.886967 0.891305 0.896112 0.819611 0.839806 0.857279 0.841225 0.856041 0.869539 0.861519 0.872163 0.882206 0.857279 0.872125 0.884363 0.869539 0.881398 0.891496 0.882206 0.89135 0.899374 0.861519 0.872163 0.882206 0.879923 0.887351 0.894604 0.896112 0.901162 0.906226 0.882206 0.89135 0.899374 0.894604 0.901411 0.907575 0.906226 0.911117 0.915668 0.869939 0.883513 0.893245 0 0.884483 0.894006 0.873925 0.88676 0.895984 0.893245 0.899131 0.900765 0.894006 0.899874 0.901945 0.895984 0.901928 0.904252 0.873925 0.88676 0.895984 0.878407 0.890416 0.89926 0.884363 0.895337 0.903652 0.895984 0.901928 0.904252 0.89926 0.905208 0.908251 0.903652 0.909509 0.913012 0.900765 0.898185 0.884592 0.901945 0.899443 0.892445 0.904252 0.903577 0.898098 0.884592 0.868096 0 0.892445 0.873476 0.851904 0.898098 0.891375 0.883884 0.904252 0.903577 0.898098 0.908251 0.908968 0.907336 0.913012 0.915081 0.915549 0.898098 0.891375 0.883884 0.907336 0.90469 0.903472 0.915549 0.915365 0.915605 0.884363 0.895337 0.903652 0.891496 0.901191 0.908775 0.899374 0.90771 0.914425 0.903652 0.909509 0.913012 0.908775 0.914402 0.918229 0.914425 0.919641 0.923486 0.899374 0.90771 0.914425 0.907575 0.914529 0.920292 0.915668 0.921307 0.926085 0.914425 0.919641 0.923486 0.920292 0.924934 0.928547 0.926085 0.930046 0.933243 0.913012 0.915081 0.915549 0.918229 0.920961 0.922544 0.923486 0.926446 0.928475 0.915549 0.915365 0.915605 0.922544 0.923484 0.924454 0.928475 0.929893 0.931074 0.923486 0.926446 0.928475 0.928547 0.93139 0.93348 0.933243 0.935749 0.937654 0.928475 0.929893 0.931074 0.93348 0.935003 0.936172 0.937654 0.939068 0.940122 0.880682 0.883359 0.886967 0.898727 0.900593 0.903062 0.913346 0.91461 0.916264 0.886967 0.891305 0.896112 0.903062 0.906016 0.909321 0.916264 0.918241 0.920466 0.913346 0.91461 0.916264 0.924972 0.925794 0.92686 0.933907 0.9344 0.935046 0.916264 0.918241 0.920466 0.92686 0.928136 0.929582 0.935046 0.935827 0.936718 0.896112 0.901162 0.906226 0.909321 0.912835 0.91642 0.920466 0.922855 0.925325 0.906226 0.911117 0.915668 0.91642 0.919948 0.923306 0.925325 0.927795 0.930187 0.920466 0.922855 0.925325 0.929582 0.931149 0.932789 0.936718 0.937696 0.93873 0.925325 0.927795 0.930187 0.932789 0.934453 0.936092 0.93873 0.939792 0.940852 0.933907 0.9344 0.935046 0.940374 0.940636 0.940988 0.944534 0.944643 0.944803 0.935046 0.935827 0.936718 0.940988 0.941423 0.941927 0.944803 0.94501 0.945259 0.944534 0.944643 0.944803 0.946514 0.94654 0.946591 0.946409 0.946414 0.946427 0.944803 0.94501 0.945259 0.946591 0.946665 0.94676 0.946427 0.946448 0.946476 0.936718 0.937696 0.93873 0.941927 0.942488 0.94309 0.945259 0.945542 0.94585 0.93873 0.939792 0.940852 0.94309 0.943717 0.944351 0.94585 0.946177 0.946512 0.945259 0.945542 0.94585 0.94676 0.946874 0.947001 0.946476 0.946511 0.94655 0.94585 0.946177 0.946512 0.947001 0.947138 0.947281 0.94655 0.946592 0.946635 0.915668 0.921307 0.926085 0.923306 0.92765 0.93141 0.930187 0.933392 0.93621 0.926085 0.930046 0.933243 0.93141 0.934593 0.937223 0.93621 0.938638 0.940679 0.930187 0.933392 0.93621 0.936092 0.938324 0.940316 0.940852 0.942295 0.943596 0.93621 0.938638 0.940679 0.940316 0.942055 0.943536 0.943596 0.944743 0.945726 0.933243 0.935749 0.937654 0.937223 0.939338 0.940987 0.940679 0.942348 0.94367 0.937654 0.939068 0.940122 0.940987 0.942232 0.943143 0.94367 0.944673 0.945403 0.940679 0.942348 0.94367 0.943536 0.94476 0.945735 0.945726 0.946542 0.947189 0.94367 0.944673 0.945403 0.945735 0.946473 0.946995 0.947189 0.947671 0.947998 0.940852 0.942295 0.943596 0.944351 0.945185 0.945943 0.946512 0.946914 0.947281 0.943596 0.944743 0.945726 0.945943 0.946615 0.947191 0.947281 0.947606 0.94788 0.946512 0.946914 0.947281 0.947281 0.947423 0.947551 0.946635 0.946677 0.946717 0.947281 0.947606 0.94788 0.947551 0.947663 0.947754 0.946717 0.946751 0.946777 0.945726 0.946542 0.947189 0.947191 0.947666 0.948035 0.94788 0.9481 0.94826 0.947189 0.947671 0.947998 0.948035 0.948297 0.948452 0.94826 0.948357 0.948391 0.94788 0.9481 0.94826 0.947754 0.947818 0.947854 0.946777 0.946794 0.9468 0.94826 0.948357 0.948391 0.947854 0.947858 0.947827 0.9468 0.946792 0.946769 0.946409 0.946414 0.946427 0.944802 0.944801 0.9448 0.941857 0.941852 0.941838 0.946427 0.946448 0.946476 0.9448 0.944797 0.944793 0.941838 0.941813 0.941779 0.941857 0.941852 0.941838 0.93761 0.937601 0.937574 0.932094 0.932081 0.932042 0.941838 0.941813 0.941779 0.937574 0.937529 0.937466 0.932042 0.931977 0.931886 0.946476 0.946511 0.94655 0.944793 0.944786 0.944775 0.941779 0.941734 0.941678 0.94655 0.946592 0.946635 0.944775 0.94476 0.94474 0.941678 0.94161 0.941531 0.941779 0.941734 0.941678 0.937466 0.937385 0.937286 0.931886 0.931769 0.931627 0.941678 0.94161 0.941531 0.937286 0.937169 0.937033 0.931627 0.93146 0.931268 0.932094 0.932081 0.932042 0.925342 0.925325 0.925274 0.917388 0.917366 0.917302 0.932042 0.931977 0.931886 0.925274 0.925188 0.925068 0.917302 0.917194 0.917044 0.917388 0.917366 0.917302 0.908266 0.908239 0.908161 0.898013 0.897982 0.897888 0.917302 0.917194 0.917044 0.908161 0.90803 0.907848 0.897888 0.897732 0.897514 0.931886 0.931769 0.931627 0.925068 0.924915 0.924729 0.917044 0.916853 0.91662 0.931627 0.93146 0.931268 0.924729 0.92451 0.92426 0.91662 0.916347 0.916035 0.917044 0.916853 0.91662 0.907848 0.907615 0.907332 0.897514 0.897236 0.896898 0.91662 0.916347 0.916035 0.907332 0.907 0.906622 0.896898 0.896502 0.89605 0.946635 0.946677 0.946717 0.94474 0.944712 0.944676 0.941531 0.941439 0.941334 0.946717 0.946751 0.946777 0.944676 0.944631 0.944575 0.941334 0.941214 0.941081 0.941531 0.941439 0.941334 0.937033 0.936878 0.936705 0.931268 0.931051 0.93081 0.941334 0.941214 0.941081 0.936705 0.936514 0.936305 0.93081 0.930547 0.93026 0.946777 0.946794 0.9468 0.944575 0.944508 0.944427 0.941081 0.940933 0.94077 0.9468 0.946792 0.946769 0.944427 0.944332 0.944222 0.94077 0.940592 0.940398 0.941081 0.940933 0.94077 0.936305 0.936078 0.935834 0.93026 0.929953 0.929625 0.94077 0.940592 0.940398 0.935834 0.935572 0.935294 0.929625 0.929277 0.928912 0.931268 0.931051 0.93081 0.92426 0.923979 0.923668 0.916035 0.915686 0.9153 0.93081 0.930547 0.93026 0.923668 0.923328 0.922962 0.9153 0.914879 0.914426 0.916035 0.915686 0.9153 0.906622 0.906197 0.90573 0.89605 0.895544 0.894986 0.9153 0.914879 0.914426 0.90573 0.905221 0.904672 0.894986 0.894378 0.893725 0.93026 0.929953 0.929625 0.922962 0.922569 0.922153 0.914426 0.913942 0.913429 0.929625 0.929277 0.928912 0.922153 0.921714 0.921255 0.913429 0.912891 0.91233 0.914426 0.913942 0.913429 0.904672 0.904088 0.90347 0.893725 0.893028 0.892291 0.913429 0.912891 0.91233 0.90347 0.902821 0.902146 0.892291 0.891519 0.890715 0.898013 0.897982 0.897888 0.886672 0.886635 0.886524 0.874287 0.874243 0.874114 0.897888 0.897732 0.897514 0.886524 0.88634 0.886083 0.874114 0.873899 0.873598 0.874287 0.874243 0.874114 0.860907 0.860857 0.860707 0.846589 0.846532 0.846359 0.874114 0.873899 0.873598 0.860707 0.860457 0.860109 0.846359 0.846071 0.845669 0.897514 0.897236 0.896898 0.886083 0.885755 0.885356 0.873598 0.873214 0.872748 0.896898 0.896502 0.89605 0.885356 0.884889 0.884355 0.872748 0.872202 0.871577 0.873598 0.873214 0.872748 0.860109 0.859663 0.859122 0.845669 0.845155 0.84453 0.872748 0.872202 0.871577 0.859122 0.858487 0.857761 0.84453 0.843797 0.842957 0.846589 0.846532 0.846359 0.831393 0.831327 0.831129 0.815386 0.815311 0.815086 0.846359 0.846071 0.845669 0.831129 0.8308 0.83034 0.815086 0.814711 0.814187 0.815386 0.815311 0.815086 0.798641 0.798556 0.798301 0.781234 0.781139 0.780854 0.815086 0.814711 0.814187 0.798301 0.797878 0.797286 0.780854 0.780379 0.779715 0.845669 0.845155 0.84453 0.83034 0.82975 0.829033 0.814187 0.813516 0.812699 0.84453 0.843797 0.842957 0.829033 0.828191 0.827226 0.812699 0.811737 0.810634 0.814187 0.813516 0.812699 0.797286 0.796526 0.7956 0.779715 0.778862 0.777821 0.812699 0.811737 0.810634 0.7956 0.79451 0.793256 0.777821 0.776593 0.775179 0.89605 0.895544 0.894986 0.884355 0.883758 0.883099 0.871577 0.870877 0.870105 0.894986 0.894378 0.893725 0.883099 0.882381 0.881609 0.870105 0.869264 0.868358 0.871577 0.870877 0.870105 0.857761 0.856946 0.856047 0.842957 0.842015 0.840973 0.870105 0.869264 0.868358 0.856047 0.855067 0.85401 0.840973 0.839837 0.838609 0.893725 0.893028 0.892291 0.881609 0.880786 0.879916 0.868358 0.867392 0.86637 0.892291 0.891519 0.890715 0.879916 0.879003 0.878053 0.86637 0.865298 0.86418 0.868358 0.867392 0.86637 0.85401 0.852881 0.851687 0.838609 0.837297 0.835905 0.86637 0.865298 0.86418 0.851687 0.850431 0.849122 0.835905 0.834441 0.832913 0.842957 0.842015 0.840973 0.827226 0.826141 0.824941 0.810634 0.809392 0.808016 0.840973 0.839837 0.838609 0.824941 0.823629 0.82221 0.808016 0.806508 0.804875 0.810634 0.809392 0.808016 0.793256 0.791844 0.790274 0.775179 0.773582 0.771804 0.808016 0.806508 0.804875 0.790274 0.788552 0.786682 0.771804 0.769849 0.76772 0.838609 0.837297 0.835905 0.82221 0.820689 0.819075 0.804875 0.803122 0.801256 0.835905 0.834441 0.832913 0.819075 0.817372 0.81559 0.801256 0.799283 0.797216 0.804875 0.803122 0.801256 0.786682 0.784669 0.782521 0.76772 0.765422 0.762962 0.801256 0.799283 0.797216 0.782521 0.780244 0.777846 0.762962 0.760347 0.75759 0 0.912031 0.925293 0.851904 0.90676 0.935522 0.883884 0.91464 0.935894 0.925293 0.945166 0.945147 0.935522 0.944401 0.946064 0.935894 0.945023 0.945286 0.883884 0.91464 0.935894 0.903472 0.922716 0.938286 0.915605 0.929911 0.940966 0.935894 0.945023 0.945286 0.938286 0.945309 0.944846 0.940966 0.94571 0.944194 0.945147 0.939079 0.925256 0.946064 0.938879 0.925055 0.945286 0.938326 0.924261 0.925256 0.904148 0.876063 0.925055 0.903946 0.875887 0.924261 0.90333 0.875488 0.945286 0.938326 0.924261 0.944846 0.937359 0.923207 0.944194 0.93618 0.921879 0.924261 0.90333 0.875488 0.923207 0.902442 0.875161 0.921879 0.901439 0.874864 0.915605 0.929911 0.940966 0.924454 0.935394 0.943266 0.931074 0.939697 0.945176 0.940966 0.94571 0.944194 0.943266 0.946046 0.943415 0.945176 0.946231 0.942498 0.931074 0.939697 0.945176 0.936172 0.942978 0.946572 0.940122 0.94537 0.947433 0.945176 0.946231 0.942498 0.946572 0.946162 0.94143 0.947433 0.945787 0.940193 0.944194 0.93618 0.921879 0.943415 0.934887 0.92058 0.942498 0.933493 0.919246 0.921879 0.901439 0.874864 0.92058 0.900549 0.874742 0.919246 0.899738 0.874867 0.942498 0.933493 0.919246 0.94143 0.932032 0.917938 0.940193 0.930525 0.916694 0.919246 0.899738 0.874867 0.917938 0.899072 0.875301 0.916694 0.898594 0.876076 0.876063 0.83949 0.793202 0.875887 0.839524 0.794002 0.875488 0.839764 0.794285 0.793202 0.736602 0.657158 0.794002 0.736024 0.665315 0.794285 0.73817 0.665829 0.875488 0.839764 0.794285 0.875161 0.840236 0.796234 0.874864 0.841202 0.799138 0.794285 0.73817 0.665829 0.796234 0.741645 0.673249 0.799138 0.747245 0.68318 0.657158 0.571396 0.375101 0.665315 0.567298 0.449433 0.665829 0.57839 0.458772 0.375101 0.260906 0 0.449433 0.225573 -0.149695 0.458772 0.286753 0.0790141 0.665829 0.57839 0.458772 0.673249 0.591771 0.486785 0.68318 0.610106 0.52086 0.458772 0.286753 0.0790141 0.486785 0.352801 0.223043 0.52086 0.415777 0.316807 0.874864 0.841202 0.799138 0.874742 0.842522 0.80278 0.874867 0.844397 0.807353 0.799138 0.747245 0.68318 0.80278 0.754387 0.695698 0.807353 0.76295 0.710164 0.874867 0.844397 0.807353 0.875301 0.846834 0.812763 0.876076 0.849799 0.81886 0.807353 0.76295 0.710164 0.812763 0.772614 0.725899 0.81886 0.783043 0.742227 0.68318 0.610106 0.52086 0.695698 0.630223 0.553626 0.710164 0.652044 0.586142 0.52086 0.415777 0.316807 0.553626 0.468514 0.389424 0.586142 0.515109 0.448083 0.710164 0.652044 0.586142 0.725899 0.67439 0.617185 0.742227 0.696463 0.646265 0.586142 0.515109 0.448083 0.617185 0.556402 0.497607 0.646265 0.593083 0.540463 0.940122 0.94537 0.947433 0.943143 0.94695 0.947748 0.945403 0.94793 0.947662 0.947433 0.945787 0.940193 0.947748 0.945197 0.939117 0.947662 0.944374 0.937935 0.945403 0.94793 0.947662 0.946995 0.948385 0.94721 0.947998 0.948365 0.946423 0.947662 0.944374 0.937935 0.94721 0.94333 0.936654 0.946423 0.94208 0.935278 0.940193 0.930525 0.916694 0.939117 0.929386 0.915904 0.937935 0.928244 0.915206 0.916694 0.898594 0.876076 0.915904 0.89856 0.877196 0.915206 0.89872 0.878639 0.937935 0.928244 0.915206 0.936654 0.927102 0.914598 0.935278 0.925959 0.914069 0.915206 0.89872 0.878639 0.914598 0.899056 0.880363 0.914069 0.899544 0.882303 0.947998 0.948365 0.946423 0.948452 0.947916 0.945329 0.948391 0.947063 0.943951 0.946423 0.94208 0.935278 0.945329 0.940641 0.933814 0.943951 0.939024 0.932265 0.948391 0.947063 0.943951 0.947827 0.945828 0.942304 0.946769 0.944222 0.940398 0.943951 0.939024 0.932265 0.942304 0.937241 0.930633 0.940398 0.935294 0.928912 0.935278 0.925959 0.914069 0.933814 0.924813 0.913602 0.932265 0.923654 0.913175 0.914069 0.899544 0.882303 0.913602 0.900143 0.884388 0.913175 0.90081 0.886536 0.932265 0.923654 0.913175 0.930633 0.922474 0.912762 0.928912 0.921255 0.91233 0.913175 0.90081 0.886536 0.912762 0.901494 0.88867 0.91233 0.902146 0.890715 0.876076 0.849799 0.81886 0.877196 0.852726 0.824265 0.878639 0.856011 0.829987 0.81886 0.783043 0.742227 0.824265 0.79172 0.755097 0.829987 0.800552 0.767774 0.878639 0.856011 0.829987 0.880363 0.859564 0.83589 0.882303 0.863292 0.841849 0.829987 0.800552 0.767774 0.83589 0.809365 0.780081 0.841849 0.818021 0.791896 0.742227 0.696463 0.646265 0.755097 0.714558 0.67062 0.767774 0.731846 0.693215 0.646265 0.593083 0.540463 0.67062 0.624373 0.57812 0.693215 0.652653 0.611712 0.767774 0.731846 0.693215 0.780081 0.748221 0.714135 0.791896 0.763627 0.733479 0.693215 0.652653 0.611712 0.714135 0.678371 0.641906 0.733479 0.701819 0.669308 0.882303 0.863292 0.841849 0.884388 0.867093 0.847748 0.886536 0.870876 0.85349 0.841849 0.818021 0.791896 0.847748 0.826401 0.803129 0.85349 0.834419 0.813727 0.886536 0.870876 0.85349 0.88867 0.874554 0.858988 0.890715 0.878053 0.86418 0.85349 0.834419 0.813727 0.858988 0.842007 0.823659 0.86418 0.849122 0.832913 0.791896 0.763627 0.733479 0.803129 0.778051 0.751357 0.813727 0.7915 0.767872 0.733479 0.701819 0.669308 0.751357 0.723296 0.694271 0.767872 0.743001 0.717162 0.813727 0.7915 0.767872 0.823659 0.804003 0.783128 0.832913 0.81559 0.797216 0.767872 0.743001 0.717162 0.783128 0.761137 0.738187 0.797216 0.777846 0.75759 0 0.304828 0.378719 0.319115 0.346244 0.407682 0.379017 0.406214 0.428142 0.378719 0.440608 0.479131 0.407682 0.448957 0.485477 0.428142 0.462375 0.492421 0.379017 0.406214 0.428142 0.431271 0.437555 0.454093 0.454684 0.459462 0.469386 0.428142 0.462375 0.492421 0.454093 0.475515 0.499764 0.469386 0.485469 0.504675 0.479131 0.512434 0.541242 0.485477 0.516219 0.544269 0.492421 0.520493 0.546891 0.541242 0.56803 0.593516 0.544269 0.570565 0.595847 0.546891 0.572424 0.597361 0.492421 0.520493 0.546891 0.499764 0.524148 0.548749 0.504675 0.526274 0.549181 0.546891 0.572424 0.597361 0.548749 0.573332 0.597928 0.549181 0.572986 0.597366 0.454684 0.459462 0.469386 0.468784 0.47158 0.479502 0.473794 0.475874 0.482307 0.469386 0.485469 0.504675 0.479502 0.492076 0.508548 0.482307 0.493231 0.508134 0.473794 0.475874 0.482307 0.471422 0.473213 0.479042 0.462023 0.463461 0.469097 0.482307 0.493231 0.508134 0.479042 0.4891 0.503193 0.469097 0.479122 0.493333 0.504675 0.526274 0.549181 0.508548 0.527679 0.548943 0.508134 0.525925 0.546275 0.549181 0.572986 0.597366 0.548943 0.571705 0.595505 0.546275 0.568547 0.592158 0.508134 0.525925 0.546275 0.503193 0.520587 0.540838 0.493333 0.511296 0.532286 0.546275 0.568547 0.592158 0.540838 0.563246 0.587156 0.532286 0.555557 0.58032 0.593516 0.618297 0.642647 0.595847 0.620216 0.64423 0.597361 0.621317 0.645056 0.642647 0.666705 0.690488 0.64423 0.667987 0.691485 0.645056 0.668609 0.691932 0.597361 0.621317 0.645056 0.597928 0.621528 0.645096 0.597366 0.620764 0.644306 0.645056 0.668609 0.691932 0.645096 0.668561 0.691826 0.644306 0.667823 0.691162 0.690488 0.713947 0.736979 0.691485 0.714664 0.737419 0.691932 0.714938 0.737515 0.736979 0.759455 0.781234 0.737419 0.759623 0.781139 0.737515 0.759531 0.780854 0.691932 0.714938 0.737515 0.691826 0.71477 0.737268 0.691162 0.714161 0.736679 0.737515 0.759531 0.780854 0.737268 0.75918 0.780379 0.736679 0.758572 0.779715 0.597366 0.620764 0.644306 0.595505 0.618924 0.642635 0.592158 0.615904 0.640029 0.644306 0.667823 0.691162 0.642635 0.666374 0.689931 0.640029 0.664189 0.688125 0.592158 0.615904 0.640029 0.587156 0.611602 0.636434 0.58032 0.605923 0.631795 0.640029 0.664189 0.688125 0.636434 0.661243 0.685736 0.631795 0.657514 0.682753 0.691162 0.714161 0.736679 0.689931 0.713109 0.73575 0.688125 0.711612 0.734482 0.736679 0.758572 0.779715 0.73575 0.757707 0.778862 0.734482 0.756588 0.777821 0.688125 0.711612 0.734482 0.685736 0.70967 0.732875 0.682753 0.707282 0.730933 0.734482 0.756588 0.777821 0.732875 0.755216 0.776593 0.730933 0.753592 0.775179 0.462023 0.463461 0.469097 0.44498 0.446794 0.453592 0.41938 0.421663 0.430202 0.469097 0.479122 0.493333 0.453592 0.465512 0.482186 0.430202 0.445365 0.465922 0.41938 0.421663 0.430202 0.383395 0.386561 0.398579 0.33115 0.338664 0.354679 0.430202 0.445365 0.465922 0.398579 0.41833 0.444261 0.354679 0.382954 0.416662 0.493333 0.511296 0.532286 0.482186 0.502513 0.525813 0.465922 0.489957 0.516649 0.532286 0.555557 0.58032 0.525813 0.551121 0.577606 0.516649 0.544846 0.573638 0.465922 0.489957 0.516649 0.444261 0.473603 0.50497 0.416662 0.453629 0.491083 0.516649 0.544846 0.573638 0.50497 0.536927 0.568604 0.491083 0.527699 0.562768 0.33115 0.338664 0.354679 0.262256 0.271008 0.301627 0.126918 0.182859 0.225383 0.354679 0.382954 0.416662 0.301627 0.342266 0.388905 0.225383 0.294971 0.358898 0.126918 0.182859 0.225383 -0.0179256 0.0209641 0.150411 0 -0.149695 0.0790141 0.225383 0.294971 0.358898 0.150411 0.249798 0.332558 0.0790141 0.223043 0.316807 0.416662 0.453629 0.491083 0.388905 0.434557 0.478173 0.358898 0.415338 0.465443 0.491083 0.527699 0.562768 0.478173 0.518842 0.556492 0.465443 0.510172 0.550259 0.358898 0.415338 0.465443 0.332558 0.398896 0.454681 0.316807 0.389424 0.448083 0.465443 0.510172 0.550259 0.454681 0.502689 0.544666 0.448083 0.497607 0.540463 0.58032 0.605923 0.631795 0.577606 0.604158 0.63066 0.573638 0.601499 0.628863 0.631795 0.657514 0.682753 0.63066 0.65672 0.682076 0.628863 0.655425 0.681003 0.573638 0.601499 0.628863 0.568604 0.59808 0.626498 0.562768 0.594087 0.623692 0.628863 0.655425 0.681003 0.626498 0.653691 0.679575 0.623692 0.651598 0.677844 0.682753 0.707282 0.730933 0.682076 0.706539 0.729991 0.681003 0.705479 0.728787 0.730933 0.753592 0.775179 0.729991 0.752355 0.773582 0.728787 0.7509 0.771804 0.681003 0.705479 0.728787 0.679575 0.704125 0.727336 0.677844 0.702509 0.725657 0.728787 0.7509 0.771804 0.727336 0.749237 0.769849 0.725657 0.747374 0.76772 0.562768 0.594087 0.623692 0.556492 0.589759 0.620599 0.550259 0.585405 0.617415 0.623692 0.651598 0.677844 0.620599 0.649245 0.675871 0.617415 0.646751 0.673732 0.550259 0.58