# vtk DataFile Version 3.0
#This file was generated by the deal.II library on 2024/7/22 at 14:45:45
ASCII
DATASET UNSTRUCTURED_GRID

POINTS 144 double
0 -1 0
0.19509 -0.980785 0
0.382683 -0.92388 0
0 -0.823223 0
0.163686 -0.804101 0
0.323624 -0.766133 0
0 -0.646447 0
0.132283 -0.627416 0
0.264565 -0.608386 0
0.382683 -0.92388 0
0.55557 -0.83147 0
0.707107 -0.707107 0
0.323624 -0.766133 0
0.468926 -0.692831 0
0.603553 -0.603553 0
0.264565 -0.608386 0
0.382283 -0.554193 0
0.5 -0.5 0
0 -0.646447 0
0.132283 -0.627416 0
0.264565 -0.608386 0
0 -0.46967 0
0.102753 -0.460155 0
0.205506 -0.45064 0
0 -0.292893 0
0.0732233 -0.292893 0
0.146447 -0.292893 0
0.264565 -0.608386 0
0.382283 -0.554193 0
0.5 -0.5 0
0.205506 -0.45064 0
0.300976 -0.423543 0
0.396447 -0.396447 0
0.146447 -0.292893 0
0.21967 -0.292893 0
0.292893 -0.292893 0
0 -0.292893 0
0.0732233 -0.292893 0
0.146447 -0.292893 0
0 -0.146447 0
0.0732233 -0.146447 0
0.146447 -0.146447 0
0 0 0
0.0732233 0 0
0.146447 0 0
0.146447 -0.292893 0
0.21967 -0.292893 0
0.292893 -0.292893 0
0.146447 -0.146447 0
0.21967 -0.146447 0
0.292893 -0.146447 0
0.146447 0 0
0.21967 0 0
0.292893 0 0
0 0 0
0.0732233 0 0
0.146447 0 0
0 0.146447 0
0.0732233 0.146447 0
0.146447 0.146447 0
0 0.292893 0
0.0732233 0.292893 0
0.146447 0.292893 0
0.146447 0 0
0.21967 0 0
0.292893 0 0
0.146447 0.146447 0
0.21967 0.146447 0
0.292893 0.146447 0
0.146447 0.292893 0
0.21967 0.292893 0
0.292893 0.292893 0
0.707107 -0.707107 0
0.92388 -0.382683 0
1 -1.11022e-16 0
0.603553 -0.603553 0
0.748551 -0.316342 0
0.823223 -8.32667e-17 0
0.5 -0.5 0
0.573223 -0.25 0
0.646447 -5.55112e-17 0
1 -1.11022e-16 0
0.92388 0.382683 0
0.707107 0.707107 0
0.823223 -8.32667e-17 0
0.748551 0.316342 0
0.603553 0.603553 0
0.646447 -5.55112e-17 0
0.573223 0.25 0
0.5 0.5 0
0.5 -0.5 0
0.573223 -0.25 0
0.646447 -5.55112e-17 0
0.396447 -0.396447 0
0.433058 -0.198223 0
0.46967 -2.77556e-17 0
0.292893 -0.292893 0
0.292893 -0.146447 0
0.292893 0 0
0.646447 -5.55112e-17 0
0.573223 0.25 0
0.5 0.5 0
0.46967 -2.77556e-17 0
0.433058 0.198223 0
0.396447 0.396447 0
0.292893 0 0
0.292893 0.146447 0
0.292893 0.292893 0
0 1 0
0 0.823223 0
0 0.646447 0
0.19509 0.980785 0
0.163686 0.804101 0
0.132283 0.627416 0
0.382683 0.92388 0
0.323624 0.766133 0
0.264565 0.608386 0
0 0.646447 0
0 0.46967 0
0 0.292893 0
0.132283 0.627416 0
0.102753 0.460155 0
0.0732233 0.292893 0
0.264565 0.608386 0
0.205506 0.45064 0
0.146447 0.292893 0
0.382683 0.92388 0
0.323624 0.766133 0
0.264565 0.608386 0
0.55557 0.83147 0
0.468926 0.692831 0
0.382283 0.554193 0
0.707107 0.707107 0
0.603553 0.603553 0
0.5 0.5 0
0.264565 0.608386 0
0.205506 0.45064 0
0.146447 0.292893 0
0.382283 0.554193 0
0.300976 0.423543 0
0.21967 0.292893 0
0.5 0.5 0
0.396447 0.396447 0
0.292893 0.292893 0

CELLS 64 320
4	0	1	4	3
4	1	2	5	4
4	3	4	7	6
4	4	5	8	7
4	9	10	13	12
4	10	11	14	13
4	12	13	16	15
4	13	14	17	16
4	18	19	22	21
4	19	20	23	22
4	21	22	25	24
4	22	23	26	25
4	27	28	31	30
4	28	29	32	31
4	30	31	34	33
4	31	32	35	34
4	36	37	40	39
4	37	38	41	40
4	39	40	43	42
4	40	41	44	43
4	45	46	49	48
4	46	47	50	49
4	48	49	52	51
4	49	50	53	52
4	54	55	58	57
4	55	56	59	58
4	57	58	61	60
4	58	59	62	61
4	63	64	67	66
4	64	65	68	67
4	66	67	70	69
4	67	68	71	70
4	72	73	76	75
4	73	74	77	76
4	75	76	79	78
4	76	77	80	79
4	81	82	85	84
4	82	83	86	85
4	84	85	88	87
4	85	86	89	88
4	90	91	94	93
4	91	92	95	94
4	93	94	97	96
4	94	95	98	97
4	99	100	103	102
4	100	101	104	103
4	102	103	106	105
4	103	104	107	106
4	108	109	112	111
4	109	110	113	112
4	111	112	115	114
4	112	113	116	115
4	117	118	121	120
4	118	119	122	121
4	120	121	124	123
4	121	122	125	124
4	126	127	130	129
4	127	128	131	130
4	129	130	133	132
4	130	131	134	133
4	135	136	139	138
4	136	137	140	139
4	138	139	142	141
4	139	140	143	142

CELL_TYPES 64
 9 9 9 9 9 9 9 9 9 9 9 9 9 9 9 9 9 9 9 9 9 9 9 9 9 9 9 9 9 9 9 9 9 9 9 9 9 9 9 9 9 9 9 9 9 9 9 9 9 9 9 9 9 9 9 9 9 9 9 9 9 9 9 9
POINT_DATA 144
SCALARS solution double 1
LOOKUP_TABLE default
0 0.61503 0.713154 0.586502 0.659508 0.753599 0.699228 0.744882 0 0.713154 0.798797 0 0.753599 0.798306 0.826529 0 0.796333 0.809139 0.699228 0.744882 0 0.772248 0.77483 0.783349 0.77167 0.775074 0.775315 0 0.796333 0.809139 0.783349 0.790984 0.797105 0.775315 0.778162 0.780167 0.77167 0.775074 0.775315 0.747963 0.747707 0.747953 0.69971 0.699819 0.698225 0.775315 0.778162 0.780167 0.747953 0.747886 0.748007 0.698225 0.696519 0.693822 0.69971 0.699819 0.698225 0.634732 0.633482 0.630525 0.555299 0.554919 0.548051 0.698225 0.696519 0.693822 0.630525 0.625484 0.619419 0.548051 0.539257 0.525084 0 0.798252 0.610988 0.826529 0.789239 0.701848 0.809139 0.779895 0.68659 0.610988 0.506152 0 0.701848 0.463072 -0.0466777 0.68659 0.514481 0.240477 0.809139 0.779895 0.68659 0.797105 0.763946 0.688787 0.780167 0.748007 0.693822 0.68659 0.514481 0.240477 0.688787 0.570671 0.41948 0.693822 0.619419 0.525084 0 0.260025 0.346307 0.236436 0.270975 0.358353 0.166229 0.24961 0.31896 0.346307 0.454823 0.555299 0.358353 0.453413 0.554919 0.31896 0.441685 0.548051 0.166229 0.24961 0.31896 0.0692811 0.126595 0.299204 0 -0.0466777 0.240477 0.31896 0.441685 0.548051 0.299204 0.432021 0.539257 0.240477 0.41948 0.525084 
