# vtk DataFile Version 3.0
#This file was generated by the deal.II library on 2024/7/23 at 17:39:47
ASCII
DATASET UNSTRUCTURED_GRID

POINTS 576 double
0 -1 0
0.0980171 -0.995185 0
0.19509 -0.980785 0
0 -0.911612 0
0.0899302 -0.904423 0
0.179388 -0.892443 0
0 -0.823223 0
0.0818432 -0.813662 0
0.163686 -0.804101 0
0.19509 -0.980785 0
0.290285 -0.95694 0
0.382683 -0.92388 0
0.179388 -0.892443 0
0.26697 -0.871029 0
0.353154 -0.845006 0
0.163686 -0.804101 0
0.243655 -0.785117 0
0.323624 -0.766133 0
0 -0.823223 0
0.0818432 -0.813662 0
0.163686 -0.804101 0
0 -0.734835 0
0.0739922 -0.725297 0
0.147984 -0.715759 0
0 -0.646447 0
0.0661413 -0.636932 0
0.132283 -0.627416 0
0.163686 -0.804101 0
0.243655 -0.785117 0
0.323624 -0.766133 0
0.147984 -0.715759 0
0.22104 -0.701509 0
0.294095 -0.68726 0
0.132283 -0.627416 0
0.198424 -0.617901 0
0.264565 -0.608386 0
0.382683 -0.92388 0
0.471397 -0.881921 0
0.55557 -0.83147 0
0.353154 -0.845006 0
0.433836 -0.805702 0
0.512248 -0.762151 0
0.323624 -0.766133 0
0.396275 -0.729482 0
0.468926 -0.692831 0
0.55557 -0.83147 0
0.634393 -0.77301 0
0.707107 -0.707107 0
0.512248 -0.762151 0
0.585317 -0.710601 0
0.65533 -0.65533 0
0.468926 -0.692831 0
0.53624 -0.648192 0
0.603553 -0.603553 0
0.323624 -0.766133 0
0.396275 -0.729482 0
0.468926 -0.692831 0
0.294095 -0.68726 0
0.35985 -0.655386 0
0.425604 -0.623512 0
0.264565 -0.608386 0
0.323424 -0.58129 0
0.382283 -0.554193 0
0.468926 -0.692831 0
0.53624 -0.648192 0
0.603553 -0.603553 0
0.425604 -0.623512 0
0.488691 -0.587644 0
0.551777 -0.551777 0
0.382283 -0.554193 0
0.441141 -0.527097 0
0.5 -0.5 0
0 -0.646447 0
0.0661413 -0.636932 0
0.132283 -0.627416 0
0 -0.558058 0
0.0587589 -0.550922 0
0.117518 -0.543786 0
0 -0.46967 0
0.0513765 -0.464912 0
0.102753 -0.460155 0
0.132283 -0.627416 0
0.198424 -0.617901 0
0.264565 -0.608386 0
0.117518 -0.543786 0
0.176277 -0.536649 0
0.235035 -0.529513 0
0.102753 -0.460155 0
0.154129 -0.455397 0
0.205506 -0.45064 0
0 -0.46967 0
0.0513765 -0.464912 0
0.102753 -0.460155 0
0 -0.381282 0
0.0439941 -0.378903 0
0.0879881 -0.376524 0
0 -0.292893 0
0.0366117 -0.292893 0
0.0732233 -0.292893 0
0.102753 -0.460155 0
0.154129 -0.455397 0
0.205506 -0.45064 0
0.0879881 -0.376524 0
0.131982 -0.374145 0
0.175976 -0.371767 0
0.0732233 -0.292893 0
0.109835 -0.292893 0
0.146447 -0.292893 0
0.264565 -0.608386 0
0.323424 -0.58129 0
0.382283 -0.554193 0
0.235035 -0.529513 0
0.288332 -0.509191 0
0.341629 -0.488868 0
0.205506 -0.45064 0
0.253241 -0.437092 0
0.300976 -0.423543 0
0.382283 -0.554193 0
0.441141 -0.527097 0
0.5 -0.5 0
0.341629 -0.488868 0
0.394926 -0.468546 0
0.448223 -0.448223 0
0.300976 -0.423543 0
0.348711 -0.409995 0
0.396447 -0.396447 0
0.205506 -0.45064 0
0.253241 -0.437092 0
0.300976 -0.423543 0
0.175976 -0.371767 0
0.21815 -0.364992 0
0.260323 -0.358218 0
0.146447 -0.292893 0
0.183058 -0.292893 0
0.21967 -0.292893 0
0.300976 -0.423543 0
0.348711 -0.409995 0
0.396447 -0.396447 0
0.260323 -0.358218 0
0.302496 -0.351444 0
0.34467 -0.34467 0
0.21967 -0.292893 0
0.256282 -0.292893 0
0.292893 -0.292893 0
0 -0.292893 0
0.0366117 -0.292893 0
0.0732233 -0.292893 0
0 -0.21967 0
0.0366117 -0.21967 0
0.0732233 -0.21967 0
0 -0.146447 0
0.0366117 -0.146447 0
0.0732233 -0.146447 0
0.0732233 -0.292893 0
0.109835 -0.292893 0
0.146447 -0.292893 0
0.0732233 -0.21967 0
0.109835 -0.21967 0
0.146447 -0.21967 0
0.0732233 -0.146447 0
0.109835 -0.146447 0
0.146447 -0.146447 0
0 -0.146447 0
0.0366117 -0.146447 0
0.0732233 -0.146447 0
0 -0.0732233 0
0.0366117 -0.0732233 0
0.0732233 -0.0732233 0
0 0 0
0.0366117 0 0
0.0732233 0 0
0.0732233 -0.146447 0
0.109835 -0.146447 0
0.146447 -0.146447 0
0.0732233 -0.0732233 0
0.109835 -0.0732233 0
0.146447 -0.0732233 0
0.0732233 0 0
0.109835 0 0
0.146447 0 0
0.146447 -0.292893 0
0.183058 -0.292893 0
0.21967 -0.292893 0
0.146447 -0.21967 0
0.183058 -0.21967 0
0.21967 -0.21967 0
0.146447 -0.146447 0
0.183058 -0.146447 0
0.21967 -0.146447 0
0.21967 -0.292893 0
0.256282 -0.292893 0
0.292893 -0.292893 0
0.21967 -0.21967 0
0.256282 -0.21967 0
0.292893 -0.21967 0
0.21967 -0.146447 0
0.256282 -0.146447 0
0.292893 -0.146447 0
0.146447 -0.146447 0
0.183058 -0.146447 0
0.21967 -0.146447 0
0.146447 -0.0732233 0
0.183058 -0.0732233 0
0.21967 -0.0732233 0
0.146447 0 0
0.183058 0 0
0.21967 0 0
0.21967 -0.146447 0
0.256282 -0.146447 0
0.292893 -0.146447 0
0.21967 -0.0732233 0
0.256282 -0.0732233 0
0.292893 -0.0732233 0
0.21967 0 0
0.256282 0 0
0.292893 0 0
0 0 0
0.0366117 0 0
0.0732233 0 0
0 0.0732233 0
0.0366117 0.0732233 0
0.0732233 0.0732233 0
0 0.146447 0
0.0366117 0.146447 0
0.0732233 0.146447 0
0.0732233 0 0
0.109835 0 0
0.146447 0 0
0.0732233 0.0732233 0
0.109835 0.0732233 0
0.146447 0.0732233 0
0.0732233 0.146447 0
0.109835 0.146447 0
0.146447 0.146447 0
0 0.146447 0
0.0366117 0.146447 0
0.0732233 0.146447 0
0 0.21967 0
0.0366117 0.21967 0
0.0732233 0.21967 0
0 0.292893 0
0.0366117 0.292893 0
0.0732233 0.292893 0
0.0732233 0.146447 0
0.109835 0.146447 0
0.146447 0.146447 0
0.0732233 0.21967 0
0.109835 0.21967 0
0.146447 0.21967 0
0.0732233 0.292893 0
0.109835 0.292893 0
0.146447 0.292893 0
0.146447 0 0
0.183058 0 0
0.21967 0 0
0.146447 0.0732233 0
0.183058 0.0732233 0
0.21967 0.0732233 0
0.146447 0.146447 0
0.183058 0.146447 0
0.21967 0.146447 0
0.21967 0 0
0.256282 0 0
0.292893 0 0
0.21967 0.0732233 0
0.256282 0.0732233 0
0.292893 0.0732233 0
0.21967 0.146447 0
0.256282 0.146447 0
0.292893 0.146447 0
0.146447 0.146447 0
0.183058 0.146447 0
0.21967 0.146447 0
0.146447 0.21967 0
0.183058 0.21967 0
0.21967 0.21967 0
0.146447 0.292893 0
0.183058 0.292893 0
0.21967 0.292893 0
0.21967 0.146447 0
0.256282 0.146447 0
0.292893 0.146447 0
0.21967 0.21967 0
0.256282 0.21967 0
0.292893 0.21967 0
0.21967 0.292893 0
0.256282 0.292893 0
0.292893 0.292893 0
0.707107 -0.707107 0
0.83147 -0.55557 0
0.92388 -0.382683 0
0.65533 -0.65533 0
0.753761 -0.507759 0
0.836215 -0.349513 0
0.603553 -0.603553 0
0.676052 -0.459948 0
0.748551 -0.316342 0
0.92388 -0.382683 0
0.980785 -0.19509 0
1 -1.11022e-16 0
0.836215 -0.349513 0
0.883336 -0.176631 0
0.911612 -9.71445e-17 0
0.748551 -0.316342 0
0.785887 -0.158171 0
0.823223 -8.32667e-17 0
0.603553 -0.603553 0
0.676052 -0.459948 0
0.748551 -0.316342 0
0.551777 -0.551777 0
0.606332 -0.417474 0
0.660887 -0.283171 0
0.5 -0.5 0
0.536612 -0.375 0
0.573223 -0.25 0
0.748551 -0.316342 0
0.785887 -0.158171 0
0.823223 -8.32667e-17 0
0.660887 -0.283171 0
0.697861 -0.141585 0
0.734835 -6.93889e-17 0
0.573223 -0.25 0
0.609835 -0.125 0
0.646447 -5.55112e-17 0
1 -1.11022e-16 0
0.980785 0.19509 0
0.92388 0.382683 0
0.911612 -9.71445e-17 0
0.883336 0.176631 0
0.836215 0.349513 0
0.823223 -8.32667e-17 0
0.785887 0.158171 0
0.748551 0.316342 0
0.92388 0.382683 0
0.83147 0.55557 0
0.707107 0.707107 0
0.836215 0.349513 0
0.753761 0.507759 0
0.65533 0.65533 0
0.748551 0.316342 0
0.676052 0.459948 0
0.603553 0.603553 0
0.823223 -8.32667e-17 0
0.785887 0.158171 0
0.748551 0.316342 0
0.734835 -6.93889e-17 0
0.697861 0.141585 0
0.660887 0.283171 0
0.646447 -5.55112e-17 0
0.609835 0.125 0
0.573223 0.25 0
0.748551 0.316342 0
0.676052 0.459948 0
0.603553 0.603553 0
0.660887 0.283171 0
0.606332 0.417474 0
0.551777 0.551777 0
0.573223 0.25 0
0.536612 0.375 0
0.5 0.5 0
0.5 -0.5 0
0.536612 -0.375 0
0.573223 -0.25 0
0.448223 -0.448223 0
0.475682 -0.336167 0
0.503141 -0.224112 0
0.396447 -0.396447 0
0.414752 -0.297335 0
0.433058 -0.198223 0
0.573223 -0.25 0
0.609835 -0.125 0
0.646447 -5.55112e-17 0
0.503141 -0.224112 0
0.5306 -0.112056 0
0.558058 -4.16334e-17 0
0.433058 -0.198223 0
0.451364 -0.0991117 0
0.46967 -2.77556e-17 0
0.396447 -0.396447 0
0.414752 -0.297335 0
0.433058 -0.198223 0
0.34467 -0.34467 0
0.353823 -0.258502 0
0.362976 -0.172335 0
0.292893 -0.292893 0
0.292893 -0.21967 0
0.292893 -0.146447 0
0.433058 -0.198223 0
0.451364 -0.0991117 0
0.46967 -2.77556e-17 0
0.362976 -0.172335 0
0.372129 -0.0861675 0
0.381282 -1.38778e-17 0
0.292893 -0.146447 0
0.292893 -0.0732233 0
0.292893 0 0
0.646447 -5.55112e-17 0
0.609835 0.125 0
0.573223 0.25 0
0.558058 -4.16334e-17 0
0.5306 0.112056 0
0.503141 0.224112 0
0.46967 -2.77556e-17 0
0.451364 0.0991117 0
0.433058 0.198223 0
0.573223 0.25 0
0.536612 0.375 0
0.5 0.5 0
0.503141 0.224112 0
0.475682 0.336167 0
0.448223 0.448223 0
0.433058 0.198223 0
0.414752 0.297335 0
0.396447 0.396447 0
0.46967 -2.77556e-17 0
0.451364 0.0991117 0
0.433058 0.198223 0
0.381282 -1.38778e-17 0
0.372129 0.0861675 0
0.362976 0.172335 0
0.292893 0 0
0.292893 0.0732233 0
0.292893 0.146447 0
0.433058 0.198223 0
0.414752 0.297335 0
0.396447 0.396447 0
0.362976 0.172335 0
0.353823 0.258502 0
0.34467 0.34467 0
0.292893 0.146447 0
0.292893 0.21967 0
0.292893 0.292893 0
0 1 0
0 0.911612 0
0 0.823223 0
0.0980171 0.995185 0
0.0899302 0.904423 0
0.0818432 0.813662 0
0.19509 0.980785 0
0.179388 0.892443 0
0.163686 0.804101 0
0 0.823223 0
0 0.734835 0
0 0.646447 0
0.0818432 0.813662 0
0.0739922 0.725297 0
0.0661413 0.636932 0
0.163686 0.804101 0
0.147984 0.715759 0
0.132283 0.627416 0
0.19509 0.980785 0
0.179388 0.892443 0
0.163686 0.804101 0
0.290285 0.95694 0
0.26697 0.871029 0
0.243655 0.785117 0
0.382683 0.92388 0
0.353154 0.845006 0
0.323624 0.766133 0
0.163686 0.804101 0
0.147984 0.715759 0
0.132283 0.627416 0
0.243655 0.785117 0
0.22104 0.701509 0
0.198424 0.617901 0
0.323624 0.766133 0
0.294095 0.68726 0
0.264565 0.608386 0
0 0.646447 0
0 0.558058 0
0 0.46967 0
0.0661413 0.636932 0
0.0587589 0.550922 0
0.0513765 0.464912 0
0.132283 0.627416 0
0.117518 0.543786 0
0.102753 0.460155 0
0 0.46967 0
0 0.381282 0
0 0.292893 0
0.0513765 0.464912 0
0.0439941 0.378903 0
0.0366117 0.292893 0
0.102753 0.460155 0
0.0879881 0.376524 0
0.0732233 0.292893 0
0.132283 0.627416 0
0.117518 0.543786 0
0.102753 0.460155 0
0.198424 0.617901 0
0.176277 0.536649 0
0.154129 0.455397 0
0.264565 0.608386 0
0.235035 0.529513 0
0.205506 0.45064 0
0.102753 0.460155 0
0.0879881 0.376524 0
0.0732233 0.292893 0
0.154129 0.455397 0
0.131982 0.374145 0
0.109835 0.292893 0
0.205506 0.45064 0
0.175976 0.371767 0
0.146447 0.292893 0
0.382683 0.92388 0
0.353154 0.845006 0
0.323624 0.766133 0
0.471397 0.881921 0
0.433836 0.805702 0
0.396275 0.729482 0
0.55557 0.83147 0
0.512248 0.762151 0
0.468926 0.692831 0
0.323624 0.766133 0
0.294095 0.68726 0
0.264565 0.608386 0
0.396275 0.729482 0
0.35985 0.655386 0
0.323424 0.58129 0
0.468926 0.692831 0
0.425604 0.623512 0
0.382283 0.554193 0
0.55557 0.83147 0
0.512248 0.762151 0
0.468926 0.692831 0
0.634393 0.77301 0
0.585317 0.710601 0
0.53624 0.648192 0
0.707107 0.707107 0
0.65533 0.65533 0
0.603553 0.603553 0
0.468926 0.692831 0
0.425604 0.623512 0
0.382283 0.554193 0
0.53624 0.648192 0
0.488691 0.587644 0
0.441141 0.527097 0
0.603553 0.603553 0
0.551777 0.551777 0
0.5 0.5 0
0.264565 0.608386 0
0.235035 0.529513 0
0.205506 0.45064 0
0.323424 0.58129 0
0.288332 0.509191 0
0.253241 0.437092 0
0.382283 0.554193 0
0.341629 0.488868 0
0.300976 0.423543 0
0.205506 0.45064 0
0.175976 0.371767 0
0.146447 0.292893 0
0.253241 0.437092 0
0.21815 0.364992 0
0.183058 0.292893 0
0.300976 0.423543 0
0.260323 0.358218 0
0.21967 0.292893 0
0.382283 0.554193 0
0.341629 0.488868 0
0.300976 0.423543 0
0.441141 0.527097 0
0.394926 0.468546 0
0.348711 0.409995 0
0.5 0.5 0
0.448223 0.448223 0
0.396447 0.396447 0
0.300976 0.423543 0
0.260323 0.358218 0
0.21967 0.292893 0
0.348711 0.409995 0
0.302496 0.351444 0
0.256282 0.292893 0
0.396447 0.396447 0
0.34467 0.34467 0
0.292893 0.292893 0

CELLS 256 1280
4	0	1	4	3
4	1	2	5	4
4	3	4	7	6
4	4	5	8	7
4	9	10	13	12
4	10	11	14	13
4	12	13	16	15
4	13	14	17	16
4	18	19	22	21
4	19	20	23	22
4	21	22	25	24
4	22	23	26	25
4	27	28	31	30
4	28	29	32	31
4	30	31	34	33
4	31	32	35	34
4	36	37	40	39
4	37	38	41	40
4	39	40	43	42
4	40	41	44	43
4	45	46	49	48
4	46	47	50	49
4	48	49	52	51
4	49	50	53	52
4	54	55	58	57
4	55	56	59	58
4	57	58	61	60
4	58	59	62	61
4	63	64	67	66
4	64	65	68	67
4	66	67	70	69
4	67	68	71	70
4	72	73	76	75
4	73	74	77	76
4	75	76	79	78
4	76	77	80	79
4	81	82	85	84
4	82	83	86	85
4	84	85	88	87
4	85	86	89	88
4	90	91	94	93
4	91	92	95	94
4	93	94	97	96
4	94	95	98	97
4	99	100	103	102
4	100	101	104	103
4	102	103	106	105
4	103	104	107	106
4	108	109	112	111
4	109	110	113	112
4	111	112	115	114
4	112	113	116	115
4	117	118	121	120
4	118	119	122	121
4	120	121	124	123
4	121	122	125	124
4	126	127	130	129
4	127	128	131	130
4	129	130	133	132
4	130	131	134	133
4	135	136	139	138
4	136	137	140	139
4	138	139	142	141
4	139	140	143	142
4	144	145	148	147
4	145	146	149	148
4	147	148	151	150
4	148	149	152	151
4	153	154	157	156
4	154	155	158	157
4	156	157	160	159
4	157	158	161	160
4	162	163	166	165
4	163	164	167	166
4	165	166	169	168
4	166	167	170	169
4	171	172	175	174
4	172	173	176	175
4	174	175	178	177
4	175	176	179	178
4	180	181	184	183
4	181	182	185	184
4	183	184	187	186
4	184	185	188	187
4	189	190	193	192
4	190	191	194	193
4	192	193	196	195
4	193	194	197	196
4	198	199	202	201
4	199	200	203	202
4	201	202	205	204
4	202	203	206	205
4	207	208	211	210
4	208	209	212	211
4	210	211	214	213
4	211	212	215	214
4	216	217	220	219
4	217	218	221	220
4	219	220	223	222
4	220	221	224	223
4	225	226	229	228
4	226	227	230	229
4	228	229	232	231
4	229	230	233	232
4	234	235	238	237
4	235	236	239	238
4	237	238	241	240
4	238	239	242	241
4	243	244	247	246
4	244	245	248	247
4	246	247	250	249
4	247	248	251	250
4	252	253	256	255
4	253	254	257	256
4	255	256	259	258
4	256	257	260	259
4	261	262	265	264
4	262	263	266	265
4	264	265	268	267
4	265	266	269	268
4	270	271	274	273
4	271	272	275	274
4	273	274	277	276
4	274	275	278	277
4	279	280	283	282
4	280	281	284	283
4	282	283	286	285
4	283	284	287	286
4	288	289	292	291
4	289	290	293	292
4	291	292	295	294
4	292	293	296	295
4	297	298	301	300
4	298	299	302	301
4	300	301	304	303
4	301	302	305	304
4	306	307	310	309
4	307	308	311	310
4	309	310	313	312
4	310	311	314	313
4	315	316	319	318
4	316	317	320	319
4	318	319	322	321
4	319	320	323	322
4	324	325	328	327
4	325	326	329	328
4	327	328	331	330
4	328	329	332	331
4	333	334	337	336
4	334	335	338	337
4	336	337	340	339
4	337	338	341	340
4	342	343	346	345
4	343	344	347	346
4	345	346	349	348
4	346	347	350	349
4	351	352	355	354
4	352	353	356	355
4	354	355	358	357
4	355	356	359	358
4	360	361	364	363
4	361	362	365	364
4	363	364	367	366
4	364	365	368	367
4	369	370	373	372
4	370	371	374	373
4	372	373	376	375
4	373	374	377	376
4	378	379	382	381
4	379	380	383	382
4	381	382	385	384
4	382	383	386	385
4	387	388	391	390
4	388	389	392	391
4	390	391	394	393
4	391	392	395	394
4	396	397	400	399
4	397	398	401	400
4	399	400	403	402
4	400	401	404	403
4	405	406	409	408
4	406	407	410	409
4	408	409	412	411
4	409	410	413	412
4	414	415	418	417
4	415	416	419	418
4	417	418	421	420
4	418	419	422	421
4	423	424	427	426
4	424	425	428	427
4	426	427	430	429
4	427	428	431	430
4	432	433	436	435
4	433	434	437	436
4	435	436	439	438
4	436	437	440	439
4	441	442	445	444
4	442	443	446	445
4	444	445	448	447
4	445	446	449	448
4	450	451	454	453
4	451	452	455	454
4	453	454	457	456
4	454	455	458	457
4	459	460	463	462
4	460	461	464	463
4	462	463	466	465
4	463	464	467	466
4	468	469	472	471
4	469	470	473	472
4	471	472	475	474
4	472	473	476	475
4	477	478	481	480
4	478	479	482	481
4	480	481	484	483
4	481	482	485	484
4	486	487	490	489
4	487	488	491	490
4	489	490	493	492
4	490	491	494	493
4	495	496	499	498
4	496	497	500	499
4	498	499	502	501
4	499	500	503	502
4	504	505	508	507
4	505	506	509	508
4	507	508	511	510
4	508	509	512	511
4	513	514	517	516
4	514	515	518	517
4	516	517	520	519
4	517	518	521	520
4	522	523	526	525
4	523	524	527	526
4	525	526	529	528
4	526	527	530	529
4	531	532	535	534
4	532	533	536	535
4	534	535	538	537
4	535	536	539	538
4	540	541	544	543
4	541	542	545	544
4	543	544	547	546
4	544	545	548	547
4	549	550	553	552
4	550	551	554	553
4	552	553	556	555
4	553	554	557	556
4	558	559	562	561
4	559	560	563	562
4	561	562	565	564
4	562	563	566	565
4	567	568	571	570
4	568	569	572	571
4	570	571	574	573
4	571	572	575	574

CELL_TYPES 256
 9 9 9 9 9 9 9 9 9 9 9 9 9 9 9 9 9 9 9 9 9 9 9 9 9 9 9 9 9 9 9 9 9 9 9 9 9 9 9 9 9 9 9 9 9 9 9 9 9 9 9 9 9 9 9 9 9 9 9 9 9 9 9 9 9 9 9 9 9 9 9 9 9 9 9 9 9 9 9 9 9 9 9 9 9 9 9 9 9 9 9 9 9 9 9 9 9 9 9 9 9 9 9 9 9 9 9 9 9 9 9 9 9 9 9 9 9 9 9 9 9 9 9 9 9 9 9 9 9 9 9 9 9 9 9 9 9 9 9 9 9 9 9 9 9 9 9 9 9 9 9 9 9 9 9 9 9 9 9 9 9 9 9 9 9 9 9 9 9 9 9 9 9 9 9 9 9 9 9 9 9 9 9 9 9 9 9 9 9 9 9 9 9 9 9 9 9 9 9 9 9 9 9 9 9 9 9 9 9 9 9 9 9 9 9 9 9 9 9 9 9 9 9 9 9 9 9 9 9 9 9 9 9 9 9 9 9 9 9 9 9 9 9 9 9 9 9 9 9 9 9 9 9 9 9 9
POINT_DATA 576
SCALARS solution double 1
LOOKUP_TABLE default
0 0.19509 0.382684 0.285651 0.344226 0.45077 0.417924 0.451901 0.508863 0.382684 0.55557 0.707107 0.45077 0.570219 0.682474 0.508863 0.584453 0.661315 0.417924 0.451901 0.508863 0.499274 0.515085 0.547547 0.538029 0.5462 0.563521 0.508863 0.584453 0.661315 0.547547 0.591734 0.641199 0.563521 0.588309 0.618185 0.707107 0.83147 0.92388 0.682474 0.774865 0.849469 0.661315 0.726973 0.780511 0.92388 0.980786 1 0.849469 0.892252 0.916238 0.780511 0.814189 0.833685 0.661315 0.726973 0.780511 0.641199 0.683663 0.719344 0.618185 0.642653 0.663437 0.780511 0.814189 0.833685 0.719344 0.743526 0.758888 0.663437 0.679892 0.691353 0.538029 0.5462 0.563521 0.548755 0.551645 0.560099 0.536691 0.537182 0.540757 0.563521 0.588309 0.618185 0.560099 0.573229 0.590105 0.540757 0.547098 0.555764 0.536691 0.537182 0.540757 0.506798 0.506588 0.507924 0.462309 0.462644 0.463621 0.540757 0.547098 0.555764 0.507924 0.510698 0.514776 0.463621 0.465225 0.467422 0.618185 0.642653 0.663437 0.590105 0.602793 0.614258 0.555764 0.561358 0.56695 0.663437 0.679892 0.691353 0.614258 0.623798 0.630871 0.56695 0.572107 0.576369 0.555764 0.561358 0.56695 0.514776 0.517292 0.520298 0.467422 0.47018 0.473449 0.56695 0.572107 0.576369 0.520298 0.523584 0.526951 0.473449 0.47719 0.481322 0.462309 0.462644 0.463621 0.416637 0.41678 0.417206 0.364433 0.364409 0.364332 0.463621 0.465225 0.467422 0.417206 0.417903 0.418853 0.364332 0.364197 0.363993 0.364433 0.364409 0.364332 0.307064 0.30688 0.306326 0.245802 0.245463 0.244444 0.364332 0.364197 0.363993 0.306326 0.3054 0.304096 0.244444 0.242746 0.24037 0.467422 0.47018 0.473449 0.418853 0.420034 0.421419 0.363993 0.363707 0.363321 0.473449 0.47719 0.481322 0.421419 0.422978 0.424694 0.363321 0.362818 0.36216 0.363993 0.363707 0.363321 0.304096 0.302409 0.300331 0.24037 0.237314 0.233579 0.363321 0.362818 0.36216 0.300331 0.297851 0.294963 0.233579 0.229166 0.224073 0.245802 0.245463 0.244444 0.181895 0.1814 0.179917 0.116589 0.115934 0.113974 0.244444 0.242746 0.24037 0.179917 0.177447 0.173997 0.113974 0.110714 0.106165 0.116589 0.115934 0.113974 0.0511585 0.0503368 0.0478737 -0.0130324 -0.0140468 -0.0170592 0.113974 0.110714 0.106165 0.0478737 0.0437818 0.0380781 -0.0170592 -0.0220571 -0.0290053 0.24037 0.237314 0.233579 0.173997 0.169573 0.164181 0.106165 0.100339 0.0932542 0.233579 0.229166 0.224073 0.164181 0.157833 0.150536 0.0932542 0.0849287 0.0753991 0.106165 0.100339 0.0932542 0.0380781 0.0307861 0.0219305 -0.0290053 -0.0378743 -0.048612 0.0932542 0.0849287 0.0753991 0.0219305 0.0115412 -0.000364095 -0.048612 -0.0611827 -0.0755037 1 0.923872 0.707108 0.916238 0.824028 0.642672 0.833685 0.738652 0.579091 0.707108 0.38268 -1.59987e-09 0.642672 0.362675 0.0367924 0.579091 0.345895 0.0747597 0.833685 0.738652 0.579091 0.758888 0.663934 0.522468 0.691353 0.598784 0.473279 0.579091 0.345895 0.0747597 0.522468 0.331534 0.109229 0.473279 0.319307 0.140052 -1.59987e-09 -0.38268 -0.707108 0.0367924 -0.273314 -0.564072 0.0747597 -0.179457 -0.420535 -0.707108 -0.923872 -1 -0.564072 -0.741439 -0.85284 -0.420535 -0.584174 -0.705827 0.0747597 -0.179457 -0.420535 0.109229 -0.0964179 -0.291885 0.140052 -0.0237671 -0.179068 -0.420535 -0.584174 -0.705827 -0.291885 -0.445058 -0.571664 -0.179068 -0.322664 -0.449701 0.691353 0.598784 0.473279 0.630871 0.547218 0.43991 0.576369 0.501608 0.410649 0.473279 0.319307 0.140052 0.43991 0.31225 0.166955 0.410649 0.306053 0.189941 0.576369 0.501608 0.410649 0.526951 0.461045 0.384958 0.481322 0.424694 0.36216 0.410649 0.306053 0.189941 0.384958 0.30041 0.208982 0.36216 0.294963 0.224073 0.140052 -0.0237671 -0.179068 0.166955 0.0305548 -0.101392 0.189941 0.0775014 -0.0334657 -0.179068 -0.322664 -0.449701 -0.101392 -0.226103 -0.340163 -0.0334657 -0.140814 -0.241931 0.189941 0.0775014 -0.0334657 0.208982 0.117378 0.0252365 0.224073 0.150536 0.0753991 -0.0334657 -0.140814 -0.241931 0.0252365 -0.0658494 -0.154144 0.0753991 -0.000364095 -0.0755037 0 -0.205136 -0.26101 -0.19509 -0.258967 -0.290954 -0.382684 -0.369111 -0.349906 -0.26101 -0.274431 -0.252744 -0.290954 -0.286067 -0.257112 -0.349906 -0.319968 -0.275046 -0.382684 -0.369111 -0.349906 -0.55557 -0.486995 -0.427184 -0.707107 -0.605964 -0.511761 -0.349906 -0.319968 -0.275046 -0.427184 -0.367655 -0.305008 -0.511761 -0.426223 -0.344496 -0.252744 -0.210879 -0.153947 -0.257112 -0.211596 -0.153579 -0.275046 -0.221413 -0.158978 -0.153947 -0.0869284 -0.0130324 -0.153579 -0.0868048 -0.0140468 -0.158978 -0.0901914 -0.0170592 -0.275046 -0.221413 -0.158978 -0.305008 -0.239439 -0.169842 -0.344496 -0.264756 -0.185718 -0.158978 -0.0901914 -0.0170592 -0.169842 -0.0969808 -0.0220571 -0.185718 -0.107041 -0.0290053 -0.707107 -0.605964 -0.511761 -0.83147 -0.695612 -0.576859 -0.92388 -0.775692 -0.635894 -0.511761 -0.426223 -0.344496 -0.576859 -0.469158 -0.370548 -0.635894 -0.510808 -0.397139 -0.92388 -0.775692 -0.635894 -0.980786 -0.819075 -0.674712 -1 -0.85284 -0.705827 -0.635894 -0.510808 -0.397139 -0.674712 -0.542858 -0.423772 -0.705827 -0.571664 -0.449701 -0.344496 -0.264756 -0.185718 -0.370548 -0.281126 -0.196462 -0.397139 -0.299587 -0.209698 -0.185718 -0.107041 -0.0290053 -0.196462 -0.115511 -0.0378743 -0.209698 -0.126322 -0.048612 -0.397139 -0.299587 -0.209698 -0.423772 -0.319441 -0.22501 -0.449701 -0.340163 -0.241931 -0.209698 -0.126322 -0.048612 -0.22501 -0.139264 -0.0611827 -0.241931 -0.154144 -0.0755037 
